V -t * -v 1.0a5 -a 0
A -t * -n 1 -p 0 -o 0x7fffffff -c 30 -a 1
A -t * -h 1 -m 1073741823 -s 0
n -t * -a 35 -s 35 -S UP -v circle -c black -i black
n -t * -a 36 -s 36 -S UP -v circle -c black -i black
n -t * -a 37 -s 37 -S UP -v circle -c black -i black
n -t * -a 38 -s 38 -S UP -v circle -c black -i black
n -t * -a 39 -s 39 -S UP -v circle -c black -i black
n -t * -a 40 -s 40 -S UP -v circle -c black -i black
n -t * -a 41 -s 41 -S UP -v circle -c black -i black
n -t * -a 42 -s 42 -S UP -v circle -c black -i black
n -t * -a 43 -s 43 -S UP -v circle -c black -i black
n -t * -a 44 -s 44 -S UP -v circle -c black -i black
n -t * -a 45 -s 45 -S UP -v circle -c black -i black
n -t * -a 46 -s 46 -S UP -v circle -c black -i black
n -t * -a 47 -s 47 -S UP -v circle -c black -i black
n -t * -a 48 -s 48 -S UP -v circle -c black -i black
n -t * -a 49 -s 49 -S UP -v circle -c black -i black
n -t * -a 10 -s 10 -S UP -v circle -c black -i black
n -t * -a 11 -s 11 -S UP -v circle -c black -i black
n -t * -a 12 -s 12 -S UP -v circle -c black -i black
n -t * -a 13 -s 13 -S UP -v circle -c black -i black
n -t * -a 14 -s 14 -S UP -v circle -c black -i black
n -t * -a 15 -s 15 -S UP -v circle -c black -i black
n -t * -a 16 -s 16 -S UP -v circle -c black -i black
n -t * -a 0 -s 0 -S UP -v circle -c black -i black
n -t * -a 17 -s 17 -S UP -v circle -c black -i black
n -t * -a 1 -s 1 -S UP -v circle -c black -i black
n -t * -a 18 -s 18 -S UP -v circle -c black -i black
n -t * -a 2 -s 2 -S UP -v circle -c black -i black
n -t * -a 19 -s 19 -S UP -v circle -c black -i black
n -t * -a 20 -s 20 -S UP -v circle -c black -i black
n -t * -a 3 -s 3 -S UP -v circle -c black -i black
n -t * -a 21 -s 21 -S UP -v circle -c black -i black
n -t * -a 4 -s 4 -S UP -v circle -c black -i black
n -t * -a 22 -s 22 -S UP -v circle -c black -i black
n -t * -a 5 -s 5 -S UP -v circle -c black -i black
n -t * -a 23 -s 23 -S UP -v circle -c black -i black
n -t * -a 6 -s 6 -S UP -v circle -c black -i black
n -t * -a 24 -s 24 -S UP -v circle -c black -i black
n -t * -a 7 -s 7 -S UP -v circle -c black -i black
n -t * -a 25 -s 25 -S UP -v circle -c black -i black
n -t * -a 8 -s 8 -S UP -v circle -c black -i black
n -t * -a 26 -s 26 -S UP -v circle -c black -i black
n -t * -a 9 -s 9 -S UP -v circle -c black -i black
n -t * -a 27 -s 27 -S UP -v circle -c black -i black
n -t * -a 28 -s 28 -S UP -v circle -c black -i black
n -t * -a 29 -s 29 -S UP -v circle -c black -i black
n -t * -a 30 -s 30 -S UP -v circle -c black -i black
n -t * -a 31 -s 31 -S UP -v circle -c black -i black
n -t * -a 32 -s 32 -S UP -v circle -c black -i black
n -t * -a 33 -s 33 -S UP -v circle -c black -i black
n -t * -a 34 -s 34 -S UP -v circle -c black -i black
l -t * -s 0 -d 1 -S UP -r 1000000 -D 0.01 -c black
l -t * -s 1 -d 2 -S UP -r 1000000 -D 0.01 -c black
l -t * -s 2 -d 3 -S UP -r 1000000 -D 0.01 -c black
l -t * -s 3 -d 4 -S UP -r 1000000 -D 0.01 -c black
l -t * -s 4 -d 5 -S UP -r 1000000 -D 0.01 -c black
l -t * -s 5 -d 6 -S UP -r 1000000 -D 0.01 -c black
l -t * -s 6 -d 7 -S UP -r 1000000 -D 0.01 -c black
l -t * -s 7 -d 8 -S UP -r 1000000 -D 0.01 -c black
l -t * -s 8 -d 9 -S UP -r 1000000 -D 0.01 -c black
l -t * -s 9 -d 10 -S UP -r 1000000 -D 0.01 -c black
l -t * -s 10 -d 11 -S UP -r 1000000 -D 0.01 -c black
l -t * -s 11 -d 12 -S UP -r 1000000 -D 0.01 -c black
l -t * -s 12 -d 13 -S UP -r 1000000 -D 0.01 -c black
l -t * -s 13 -d 14 -S UP -r 1000000 -D 0.01 -c black
l -t * -s 14 -d 15 -S UP -r 1000000 -D 0.01 -c black
l -t * -s 15 -d 16 -S UP -r 1000000 -D 0.01 -c black
l -t * -s 16 -d 17 -S UP -r 1000000 -D 0.01 -c black
l -t * -s 17 -d 18 -S UP -r 1000000 -D 0.01 -c black
l -t * -s 18 -d 19 -S UP -r 1000000 -D 0.01 -c black
l -t * -s 19 -d 20 -S UP -r 1000000 -D 0.01 -c black
l -t * -s 20 -d 21 -S UP -r 1000000 -D 0.01 -c black
l -t * -s 21 -d 22 -S UP -r 1000000 -D 0.01 -c black
l -t * -s 22 -d 23 -S UP -r 1000000 -D 0.01 -c black
l -t * -s 23 -d 24 -S UP -r 1000000 -D 0.01 -c black
l -t * -s 24 -d 25 -S UP -r 1000000 -D 0.01 -c black
l -t * -s 25 -d 26 -S UP -r 1000000 -D 0.01 -c black
l -t * -s 26 -d 27 -S UP -r 1000000 -D 0.01 -c black
l -t * -s 27 -d 28 -S UP -r 1000000 -D 0.01 -c black
l -t * -s 28 -d 29 -S UP -r 1000000 -D 0.01 -c black
l -t * -s 29 -d 30 -S UP -r 1000000 -D 0.01 -c black
l -t * -s 30 -d 31 -S UP -r 1000000 -D 0.01 -c black
l -t * -s 31 -d 32 -S UP -r 1000000 -D 0.01 -c black
l -t * -s 32 -d 33 -S UP -r 1000000 -D 0.01 -c black
l -t * -s 33 -d 34 -S UP -r 1000000 -D 0.01 -c black
l -t * -s 34 -d 35 -S UP -r 1000000 -D 0.01 -c black
l -t * -s 35 -d 36 -S UP -r 1000000 -D 0.01 -c black
l -t * -s 36 -d 37 -S UP -r 1000000 -D 0.01 -c black
l -t * -s 37 -d 38 -S UP -r 1000000 -D 0.01 -c black
l -t * -s 38 -d 39 -S UP -r 1000000 -D 0.01 -c black
l -t * -s 39 -d 40 -S UP -r 1000000 -D 0.01 -c black
l -t * -s 40 -d 41 -S UP -r 1000000 -D 0.01 -c black
l -t * -s 41 -d 42 -S UP -r 1000000 -D 0.01 -c black
l -t * -s 42 -d 43 -S UP -r 1000000 -D 0.01 -c black
l -t * -s 43 -d 44 -S UP -r 1000000 -D 0.01 -c black
l -t * -s 44 -d 45 -S UP -r 1000000 -D 0.01 -c black
l -t * -s 45 -d 46 -S UP -r 1000000 -D 0.01 -c black
l -t * -s 46 -d 47 -S UP -r 1000000 -D 0.01 -c black
l -t * -s 47 -d 48 -S UP -r 1000000 -D 0.01 -c black
l -t * -s 48 -d 49 -S UP -r 1000000 -D 0.01 -c black
l -t * -s 49 -d 0 -S UP -r 1000000 -D 0.01 -c black
+ -t 0.1 -s 0 -d 49 -p tcp -e 40 -c 0 -i 0 -a 0 -x {0.0 37.0 0 ------- null}
- -t 0.1 -s 0 -d 49 -p tcp -e 40 -c 0 -i 0 -a 0 -x {0.0 37.0 0 ------- null}
h -t 0.1 -s 0 -d 49 -p tcp -e 40 -c 0 -i 0 -a 0 -x {0.0 37.0 -1 ------- null}
r -t 0.11032 -s 0 -d 49 -p tcp -e 40 -c 0 -i 0 -a 0 -x {0.0 37.0 0 ------- null}
+ -t 0.11032 -s 49 -d 48 -p tcp -e 40 -c 0 -i 0 -a 0 -x {0.0 37.0 0 ------- null}
- -t 0.11032 -s 49 -d 48 -p tcp -e 40 -c 0 -i 0 -a 0 -x {0.0 37.0 0 ------- null}
h -t 0.11032 -s 49 -d 48 -p tcp -e 40 -c 0 -i 0 -a 0 -x {0.0 37.0 -1 ------- null}
r -t 0.12064 -s 49 -d 48 -p tcp -e 40 -c 0 -i 0 -a 0 -x {0.0 37.0 0 ------- null}
+ -t 0.12064 -s 48 -d 47 -p tcp -e 40 -c 0 -i 0 -a 0 -x {0.0 37.0 0 ------- null}
- -t 0.12064 -s 48 -d 47 -p tcp -e 40 -c 0 -i 0 -a 0 -x {0.0 37.0 0 ------- null}
h -t 0.12064 -s 48 -d 47 -p tcp -e 40 -c 0 -i 0 -a 0 -x {0.0 37.0 -1 ------- null}
r -t 0.13096 -s 48 -d 47 -p tcp -e 40 -c 0 -i 0 -a 0 -x {0.0 37.0 0 ------- null}
+ -t 0.13096 -s 47 -d 46 -p tcp -e 40 -c 0 -i 0 -a 0 -x {0.0 37.0 0 ------- null}
- -t 0.13096 -s 47 -d 46 -p tcp -e 40 -c 0 -i 0 -a 0 -x {0.0 37.0 0 ------- null}
h -t 0.13096 -s 47 -d 46 -p tcp -e 40 -c 0 -i 0 -a 0 -x {0.0 37.0 -1 ------- null}
r -t 0.14128 -s 47 -d 46 -p tcp -e 40 -c 0 -i 0 -a 0 -x {0.0 37.0 0 ------- null}
+ -t 0.14128 -s 46 -d 45 -p tcp -e 40 -c 0 -i 0 -a 0 -x {0.0 37.0 0 ------- null}
- -t 0.14128 -s 46 -d 45 -p tcp -e 40 -c 0 -i 0 -a 0 -x {0.0 37.0 0 ------- null}
h -t 0.14128 -s 46 -d 45 -p tcp -e 40 -c 0 -i 0 -a 0 -x {0.0 37.0 -1 ------- null}
r -t 0.1516 -s 46 -d 45 -p tcp -e 40 -c 0 -i 0 -a 0 -x {0.0 37.0 0 ------- null}
+ -t 0.1516 -s 45 -d 44 -p tcp -e 40 -c 0 -i 0 -a 0 -x {0.0 37.0 0 ------- null}
- -t 0.1516 -s 45 -d 44 -p tcp -e 40 -c 0 -i 0 -a 0 -x {0.0 37.0 0 ------- null}
h -t 0.1516 -s 45 -d 44 -p tcp -e 40 -c 0 -i 0 -a 0 -x {0.0 37.0 -1 ------- null}
r -t 0.16192 -s 45 -d 44 -p tcp -e 40 -c 0 -i 0 -a 0 -x {0.0 37.0 0 ------- null}
+ -t 0.16192 -s 44 -d 43 -p tcp -e 40 -c 0 -i 0 -a 0 -x {0.0 37.0 0 ------- null}
- -t 0.16192 -s 44 -d 43 -p tcp -e 40 -c 0 -i 0 -a 0 -x {0.0 37.0 0 ------- null}
h -t 0.16192 -s 44 -d 43 -p tcp -e 40 -c 0 -i 0 -a 0 -x {0.0 37.0 -1 ------- null}
r -t 0.17224 -s 44 -d 43 -p tcp -e 40 -c 0 -i 0 -a 0 -x {0.0 37.0 0 ------- null}
+ -t 0.17224 -s 43 -d 42 -p tcp -e 40 -c 0 -i 0 -a 0 -x {0.0 37.0 0 ------- null}
- -t 0.17224 -s 43 -d 42 -p tcp -e 40 -c 0 -i 0 -a 0 -x {0.0 37.0 0 ------- null}
h -t 0.17224 -s 43 -d 42 -p tcp -e 40 -c 0 -i 0 -a 0 -x {0.0 37.0 -1 ------- null}
r -t 0.18256 -s 43 -d 42 -p tcp -e 40 -c 0 -i 0 -a 0 -x {0.0 37.0 0 ------- null}
+ -t 0.18256 -s 42 -d 41 -p tcp -e 40 -c 0 -i 0 -a 0 -x {0.0 37.0 0 ------- null}
- -t 0.18256 -s 42 -d 41 -p tcp -e 40 -c 0 -i 0 -a 0 -x {0.0 37.0 0 ------- null}
h -t 0.18256 -s 42 -d 41 -p tcp -e 40 -c 0 -i 0 -a 0 -x {0.0 37.0 -1 ------- null}
r -t 0.19288 -s 42 -d 41 -p tcp -e 40 -c 0 -i 0 -a 0 -x {0.0 37.0 0 ------- null}
+ -t 0.19288 -s 41 -d 40 -p tcp -e 40 -c 0 -i 0 -a 0 -x {0.0 37.0 0 ------- null}
- -t 0.19288 -s 41 -d 40 -p tcp -e 40 -c 0 -i 0 -a 0 -x {0.0 37.0 0 ------- null}
h -t 0.19288 -s 41 -d 40 -p tcp -e 40 -c 0 -i 0 -a 0 -x {0.0 37.0 -1 ------- null}
r -t 0.2032 -s 41 -d 40 -p tcp -e 40 -c 0 -i 0 -a 0 -x {0.0 37.0 0 ------- null}
+ -t 0.2032 -s 40 -d 39 -p tcp -e 40 -c 0 -i 0 -a 0 -x {0.0 37.0 0 ------- null}
- -t 0.2032 -s 40 -d 39 -p tcp -e 40 -c 0 -i 0 -a 0 -x {0.0 37.0 0 ------- null}
h -t 0.2032 -s 40 -d 39 -p tcp -e 40 -c 0 -i 0 -a 0 -x {0.0 37.0 -1 ------- null}
r -t 0.21352 -s 40 -d 39 -p tcp -e 40 -c 0 -i 0 -a 0 -x {0.0 37.0 0 ------- null}
+ -t 0.21352 -s 39 -d 38 -p tcp -e 40 -c 0 -i 0 -a 0 -x {0.0 37.0 0 ------- null}
- -t 0.21352 -s 39 -d 38 -p tcp -e 40 -c 0 -i 0 -a 0 -x {0.0 37.0 0 ------- null}
h -t 0.21352 -s 39 -d 38 -p tcp -e 40 -c 0 -i 0 -a 0 -x {0.0 37.0 -1 ------- null}
r -t 0.22384 -s 39 -d 38 -p tcp -e 40 -c 0 -i 0 -a 0 -x {0.0 37.0 0 ------- null}
+ -t 0.22384 -s 38 -d 37 -p tcp -e 40 -c 0 -i 0 -a 0 -x {0.0 37.0 0 ------- null}
- -t 0.22384 -s 38 -d 37 -p tcp -e 40 -c 0 -i 0 -a 0 -x {0.0 37.0 0 ------- null}
h -t 0.22384 -s 38 -d 37 -p tcp -e 40 -c 0 -i 0 -a 0 -x {0.0 37.0 -1 ------- null}
r -t 0.23416 -s 38 -d 37 -p tcp -e 40 -c 0 -i 0 -a 0 -x {0.0 37.0 0 ------- null}
+ -t 0.23416 -s 37 -d 38 -p ack -e 40 -c 0 -i 1 -a 0 -x {37.0 0.0 0 ------- null}
- -t 0.23416 -s 37 -d 38 -p ack -e 40 -c 0 -i 1 -a 0 -x {37.0 0.0 0 ------- null}
h -t 0.23416 -s 37 -d 38 -p ack -e 40 -c 0 -i 1 -a 0 -x {37.0 0.0 -1 ------- null}
r -t 0.24448 -s 37 -d 38 -p ack -e 40 -c 0 -i 1 -a 0 -x {37.0 0.0 0 ------- null}
+ -t 0.24448 -s 38 -d 39 -p ack -e 40 -c 0 -i 1 -a 0 -x {37.0 0.0 0 ------- null}
- -t 0.24448 -s 38 -d 39 -p ack -e 40 -c 0 -i 1 -a 0 -x {37.0 0.0 0 ------- null}
h -t 0.24448 -s 38 -d 39 -p ack -e 40 -c 0 -i 1 -a 0 -x {37.0 0.0 -1 ------- null}
r -t 0.2548 -s 38 -d 39 -p ack -e 40 -c 0 -i 1 -a 0 -x {37.0 0.0 0 ------- null}
+ -t 0.2548 -s 39 -d 40 -p ack -e 40 -c 0 -i 1 -a 0 -x {37.0 0.0 0 ------- null}
- -t 0.2548 -s 39 -d 40 -p ack -e 40 -c 0 -i 1 -a 0 -x {37.0 0.0 0 ------- null}
h -t 0.2548 -s 39 -d 40 -p ack -e 40 -c 0 -i 1 -a 0 -x {37.0 0.0 -1 ------- null}
r -t 0.26512 -s 39 -d 40 -p ack -e 40 -c 0 -i 1 -a 0 -x {37.0 0.0 0 ------- null}
+ -t 0.26512 -s 40 -d 41 -p ack -e 40 -c 0 -i 1 -a 0 -x {37.0 0.0 0 ------- null}
- -t 0.26512 -s 40 -d 41 -p ack -e 40 -c 0 -i 1 -a 0 -x {37.0 0.0 0 ------- null}
h -t 0.26512 -s 40 -d 41 -p ack -e 40 -c 0 -i 1 -a 0 -x {37.0 0.0 -1 ------- null}
r -t 0.27544 -s 40 -d 41 -p ack -e 40 -c 0 -i 1 -a 0 -x {37.0 0.0 0 ------- null}
+ -t 0.27544 -s 41 -d 42 -p ack -e 40 -c 0 -i 1 -a 0 -x {37.0 0.0 0 ------- null}
- -t 0.27544 -s 41 -d 42 -p ack -e 40 -c 0 -i 1 -a 0 -x {37.0 0.0 0 ------- null}
h -t 0.27544 -s 41 -d 42 -p ack -e 40 -c 0 -i 1 -a 0 -x {37.0 0.0 -1 ------- null}
r -t 0.28576 -s 41 -d 42 -p ack -e 40 -c 0 -i 1 -a 0 -x {37.0 0.0 0 ------- null}
+ -t 0.28576 -s 42 -d 43 -p ack -e 40 -c 0 -i 1 -a 0 -x {37.0 0.0 0 ------- null}
- -t 0.28576 -s 42 -d 43 -p ack -e 40 -c 0 -i 1 -a 0 -x {37.0 0.0 0 ------- null}
h -t 0.28576 -s 42 -d 43 -p ack -e 40 -c 0 -i 1 -a 0 -x {37.0 0.0 -1 ------- null}
r -t 0.29608 -s 42 -d 43 -p ack -e 40 -c 0 -i 1 -a 0 -x {37.0 0.0 0 ------- null}
+ -t 0.29608 -s 43 -d 44 -p ack -e 40 -c 0 -i 1 -a 0 -x {37.0 0.0 0 ------- null}
- -t 0.29608 -s 43 -d 44 -p ack -e 40 -c 0 -i 1 -a 0 -x {37.0 0.0 0 ------- null}
h -t 0.29608 -s 43 -d 44 -p ack -e 40 -c 0 -i 1 -a 0 -x {37.0 0.0 -1 ------- null}
r -t 0.3064 -s 43 -d 44 -p ack -e 40 -c 0 -i 1 -a 0 -x {37.0 0.0 0 ------- null}
+ -t 0.3064 -s 44 -d 45 -p ack -e 40 -c 0 -i 1 -a 0 -x {37.0 0.0 0 ------- null}
- -t 0.3064 -s 44 -d 45 -p ack -e 40 -c 0 -i 1 -a 0 -x {37.0 0.0 0 ------- null}
h -t 0.3064 -s 44 -d 45 -p ack -e 40 -c 0 -i 1 -a 0 -x {37.0 0.0 -1 ------- null}
r -t 0.31672 -s 44 -d 45 -p ack -e 40 -c 0 -i 1 -a 0 -x {37.0 0.0 0 ------- null}
+ -t 0.31672 -s 45 -d 46 -p ack -e 40 -c 0 -i 1 -a 0 -x {37.0 0.0 0 ------- null}
- -t 0.31672 -s 45 -d 46 -p ack -e 40 -c 0 -i 1 -a 0 -x {37.0 0.0 0 ------- null}
h -t 0.31672 -s 45 -d 46 -p ack -e 40 -c 0 -i 1 -a 0 -x {37.0 0.0 -1 ------- null}
r -t 0.32704 -s 45 -d 46 -p ack -e 40 -c 0 -i 1 -a 0 -x {37.0 0.0 0 ------- null}
+ -t 0.32704 -s 46 -d 47 -p ack -e 40 -c 0 -i 1 -a 0 -x {37.0 0.0 0 ------- null}
- -t 0.32704 -s 46 -d 47 -p ack -e 40 -c 0 -i 1 -a 0 -x {37.0 0.0 0 ------- null}
h -t 0.32704 -s 46 -d 47 -p ack -e 40 -c 0 -i 1 -a 0 -x {37.0 0.0 -1 ------- null}
r -t 0.33736 -s 46 -d 47 -p ack -e 40 -c 0 -i 1 -a 0 -x {37.0 0.0 0 ------- null}
+ -t 0.33736 -s 47 -d 48 -p ack -e 40 -c 0 -i 1 -a 0 -x {37.0 0.0 0 ------- null}
- -t 0.33736 -s 47 -d 48 -p ack -e 40 -c 0 -i 1 -a 0 -x {37.0 0.0 0 ------- null}
h -t 0.33736 -s 47 -d 48 -p ack -e 40 -c 0 -i 1 -a 0 -x {37.0 0.0 -1 ------- null}
r -t 0.34768 -s 47 -d 48 -p ack -e 40 -c 0 -i 1 -a 0 -x {37.0 0.0 0 ------- null}
+ -t 0.34768 -s 48 -d 49 -p ack -e 40 -c 0 -i 1 -a 0 -x {37.0 0.0 0 ------- null}
- -t 0.34768 -s 48 -d 49 -p ack -e 40 -c 0 -i 1 -a 0 -x {37.0 0.0 0 ------- null}
h -t 0.34768 -s 48 -d 49 -p ack -e 40 -c 0 -i 1 -a 0 -x {37.0 0.0 -1 ------- null}
r -t 0.358 -s 48 -d 49 -p ack -e 40 -c 0 -i 1 -a 0 -x {37.0 0.0 0 ------- null}
+ -t 0.358 -s 49 -d 0 -p ack -e 40 -c 0 -i 1 -a 0 -x {37.0 0.0 0 ------- null}
- -t 0.358 -s 49 -d 0 -p ack -e 40 -c 0 -i 1 -a 0 -x {37.0 0.0 0 ------- null}
h -t 0.358 -s 49 -d 0 -p ack -e 40 -c 0 -i 1 -a 0 -x {37.0 0.0 -1 ------- null}
r -t 0.36832 -s 49 -d 0 -p ack -e 40 -c 0 -i 1 -a 0 -x {37.0 0.0 0 ------- null}
+ -t 0.36832 -s 0 -d 49 -p tcp -e 1040 -c 0 -i 2 -a 0 -x {0.0 37.0 1 ------- null}
- -t 0.36832 -s 0 -d 49 -p tcp -e 1040 -c 0 -i 2 -a 0 -x {0.0 37.0 1 ------- null}
h -t 0.36832 -s 0 -d 49 -p tcp -e 1040 -c 0 -i 2 -a 0 -x {0.0 37.0 -1 ------- null}
+ -t 0.36832 -s 0 -d 49 -p tcp -e 1040 -c 0 -i 3 -a 0 -x {0.0 37.0 2 ------- null}
- -t 0.37664 -s 0 -d 49 -p tcp -e 1040 -c 0 -i 3 -a 0 -x {0.0 37.0 2 ------- null}
h -t 0.37664 -s 0 -d 49 -p tcp -e 1040 -c 0 -i 3 -a 0 -x {0.0 37.0 -1 ------- null}
r -t 0.38664 -s 0 -d 49 -p tcp -e 1040 -c 0 -i 2 -a 0 -x {0.0 37.0 1 ------- null}
+ -t 0.38664 -s 49 -d 48 -p tcp -e 1040 -c 0 -i 2 -a 0 -x {0.0 37.0 1 ------- null}
- -t 0.38664 -s 49 -d 48 -p tcp -e 1040 -c 0 -i 2 -a 0 -x {0.0 37.0 1 ------- null}
h -t 0.38664 -s 49 -d 48 -p tcp -e 1040 -c 0 -i 2 -a 0 -x {0.0 37.0 -1 ------- null}
r -t 0.39496 -s 0 -d 49 -p tcp -e 1040 -c 0 -i 3 -a 0 -x {0.0 37.0 2 ------- null}
+ -t 0.39496 -s 49 -d 48 -p tcp -e 1040 -c 0 -i 3 -a 0 -x {0.0 37.0 2 ------- null}
- -t 0.39496 -s 49 -d 48 -p tcp -e 1040 -c 0 -i 3 -a 0 -x {0.0 37.0 2 ------- null}
h -t 0.39496 -s 49 -d 48 -p tcp -e 1040 -c 0 -i 3 -a 0 -x {0.0 37.0 -1 ------- null}
r -t 0.40496 -s 49 -d 48 -p tcp -e 1040 -c 0 -i 2 -a 0 -x {0.0 37.0 1 ------- null}
+ -t 0.40496 -s 48 -d 47 -p tcp -e 1040 -c 0 -i 2 -a 0 -x {0.0 37.0 1 ------- null}
- -t 0.40496 -s 48 -d 47 -p tcp -e 1040 -c 0 -i 2 -a 0 -x {0.0 37.0 1 ------- null}
h -t 0.40496 -s 48 -d 47 -p tcp -e 1040 -c 0 -i 2 -a 0 -x {0.0 37.0 -1 ------- null}
r -t 0.41328 -s 49 -d 48 -p tcp -e 1040 -c 0 -i 3 -a 0 -x {0.0 37.0 2 ------- null}
+ -t 0.41328 -s 48 -d 47 -p tcp -e 1040 -c 0 -i 3 -a 0 -x {0.0 37.0 2 ------- null}
- -t 0.41328 -s 48 -d 47 -p tcp -e 1040 -c 0 -i 3 -a 0 -x {0.0 37.0 2 ------- null}
h -t 0.41328 -s 48 -d 47 -p tcp -e 1040 -c 0 -i 3 -a 0 -x {0.0 37.0 -1 ------- null}
r -t 0.42328 -s 48 -d 47 -p tcp -e 1040 -c 0 -i 2 -a 0 -x {0.0 37.0 1 ------- null}
+ -t 0.42328 -s 47 -d 46 -p tcp -e 1040 -c 0 -i 2 -a 0 -x {0.0 37.0 1 ------- null}
- -t 0.42328 -s 47 -d 46 -p tcp -e 1040 -c 0 -i 2 -a 0 -x {0.0 37.0 1 ------- null}
h -t 0.42328 -s 47 -d 46 -p tcp -e 1040 -c 0 -i 2 -a 0 -x {0.0 37.0 -1 ------- null}
r -t 0.4316 -s 48 -d 47 -p tcp -e 1040 -c 0 -i 3 -a 0 -x {0.0 37.0 2 ------- null}
+ -t 0.4316 -s 47 -d 46 -p tcp -e 1040 -c 0 -i 3 -a 0 -x {0.0 37.0 2 ------- null}
- -t 0.4316 -s 47 -d 46 -p tcp -e 1040 -c 0 -i 3 -a 0 -x {0.0 37.0 2 ------- null}
h -t 0.4316 -s 47 -d 46 -p tcp -e 1040 -c 0 -i 3 -a 0 -x {0.0 37.0 -1 ------- null}
r -t 0.4416 -s 47 -d 46 -p tcp -e 1040 -c 0 -i 2 -a 0 -x {0.0 37.0 1 ------- null}
+ -t 0.4416 -s 46 -d 45 -p tcp -e 1040 -c 0 -i 2 -a 0 -x {0.0 37.0 1 ------- null}
- -t 0.4416 -s 46 -d 45 -p tcp -e 1040 -c 0 -i 2 -a 0 -x {0.0 37.0 1 ------- null}
h -t 0.4416 -s 46 -d 45 -p tcp -e 1040 -c 0 -i 2 -a 0 -x {0.0 37.0 -1 ------- null}
r -t 0.44992 -s 47 -d 46 -p tcp -e 1040 -c 0 -i 3 -a 0 -x {0.0 37.0 2 ------- null}
+ -t 0.44992 -s 46 -d 45 -p tcp -e 1040 -c 0 -i 3 -a 0 -x {0.0 37.0 2 ------- null}
- -t 0.44992 -s 46 -d 45 -p tcp -e 1040 -c 0 -i 3 -a 0 -x {0.0 37.0 2 ------- null}
h -t 0.44992 -s 46 -d 45 -p tcp -e 1040 -c 0 -i 3 -a 0 -x {0.0 37.0 -1 ------- null}
r -t 0.45992 -s 46 -d 45 -p tcp -e 1040 -c 0 -i 2 -a 0 -x {0.0 37.0 1 ------- null}
+ -t 0.45992 -s 45 -d 44 -p tcp -e 1040 -c 0 -i 2 -a 0 -x {0.0 37.0 1 ------- null}
- -t 0.45992 -s 45 -d 44 -p tcp -e 1040 -c 0 -i 2 -a 0 -x {0.0 37.0 1 ------- null}
h -t 0.45992 -s 45 -d 44 -p tcp -e 1040 -c 0 -i 2 -a 0 -x {0.0 37.0 -1 ------- null}
r -t 0.46824 -s 46 -d 45 -p tcp -e 1040 -c 0 -i 3 -a 0 -x {0.0 37.0 2 ------- null}
+ -t 0.46824 -s 45 -d 44 -p tcp -e 1040 -c 0 -i 3 -a 0 -x {0.0 37.0 2 ------- null}
- -t 0.46824 -s 45 -d 44 -p tcp -e 1040 -c 0 -i 3 -a 0 -x {0.0 37.0 2 ------- null}
h -t 0.46824 -s 45 -d 44 -p tcp -e 1040 -c 0 -i 3 -a 0 -x {0.0 37.0 -1 ------- null}
r -t 0.47824 -s 45 -d 44 -p tcp -e 1040 -c 0 -i 2 -a 0 -x {0.0 37.0 1 ------- null}
+ -t 0.47824 -s 44 -d 43 -p tcp -e 1040 -c 0 -i 2 -a 0 -x {0.0 37.0 1 ------- null}
- -t 0.47824 -s 44 -d 43 -p tcp -e 1040 -c 0 -i 2 -a 0 -x {0.0 37.0 1 ------- null}
h -t 0.47824 -s 44 -d 43 -p tcp -e 1040 -c 0 -i 2 -a 0 -x {0.0 37.0 -1 ------- null}
r -t 0.48656 -s 45 -d 44 -p tcp -e 1040 -c 0 -i 3 -a 0 -x {0.0 37.0 2 ------- null}
+ -t 0.48656 -s 44 -d 43 -p tcp -e 1040 -c 0 -i 3 -a 0 -x {0.0 37.0 2 ------- null}
- -t 0.48656 -s 44 -d 43 -p tcp -e 1040 -c 0 -i 3 -a 0 -x {0.0 37.0 2 ------- null}
h -t 0.48656 -s 44 -d 43 -p tcp -e 1040 -c 0 -i 3 -a 0 -x {0.0 37.0 -1 ------- null}
r -t 0.49656 -s 44 -d 43 -p tcp -e 1040 -c 0 -i 2 -a 0 -x {0.0 37.0 1 ------- null}
+ -t 0.49656 -s 43 -d 42 -p tcp -e 1040 -c 0 -i 2 -a 0 -x {0.0 37.0 1 ------- null}
- -t 0.49656 -s 43 -d 42 -p tcp -e 1040 -c 0 -i 2 -a 0 -x {0.0 37.0 1 ------- null}
h -t 0.49656 -s 43 -d 42 -p tcp -e 1040 -c 0 -i 2 -a 0 -x {0.0 37.0 -1 ------- null}
r -t 0.50488 -s 44 -d 43 -p tcp -e 1040 -c 0 -i 3 -a 0 -x {0.0 37.0 2 ------- null}
+ -t 0.50488 -s 43 -d 42 -p tcp -e 1040 -c 0 -i 3 -a 0 -x {0.0 37.0 2 ------- null}
- -t 0.50488 -s 43 -d 42 -p tcp -e 1040 -c 0 -i 3 -a 0 -x {0.0 37.0 2 ------- null}
h -t 0.50488 -s 43 -d 42 -p tcp -e 1040 -c 0 -i 3 -a 0 -x {0.0 37.0 -1 ------- null}
r -t 0.51488 -s 43 -d 42 -p tcp -e 1040 -c 0 -i 2 -a 0 -x {0.0 37.0 1 ------- null}
+ -t 0.51488 -s 42 -d 41 -p tcp -e 1040 -c 0 -i 2 -a 0 -x {0.0 37.0 1 ------- null}
- -t 0.51488 -s 42 -d 41 -p tcp -e 1040 -c 0 -i 2 -a 0 -x {0.0 37.0 1 ------- null}
h -t 0.51488 -s 42 -d 41 -p tcp -e 1040 -c 0 -i 2 -a 0 -x {0.0 37.0 -1 ------- null}
r -t 0.5232 -s 43 -d 42 -p tcp -e 1040 -c 0 -i 3 -a 0 -x {0.0 37.0 2 ------- null}
+ -t 0.5232 -s 42 -d 41 -p tcp -e 1040 -c 0 -i 3 -a 0 -x {0.0 37.0 2 ------- null}
- -t 0.5232 -s 42 -d 41 -p tcp -e 1040 -c 0 -i 3 -a 0 -x {0.0 37.0 2 ------- null}
h -t 0.5232 -s 42 -d 41 -p tcp -e 1040 -c 0 -i 3 -a 0 -x {0.0 37.0 -1 ------- null}
r -t 0.5332 -s 42 -d 41 -p tcp -e 1040 -c 0 -i 2 -a 0 -x {0.0 37.0 1 ------- null}
+ -t 0.5332 -s 41 -d 40 -p tcp -e 1040 -c 0 -i 2 -a 0 -x {0.0 37.0 1 ------- null}
- -t 0.5332 -s 41 -d 40 -p tcp -e 1040 -c 0 -i 2 -a 0 -x {0.0 37.0 1 ------- null}
h -t 0.5332 -s 41 -d 40 -p tcp -e 1040 -c 0 -i 2 -a 0 -x {0.0 37.0 -1 ------- null}
r -t 0.54152 -s 42 -d 41 -p tcp -e 1040 -c 0 -i 3 -a 0 -x {0.0 37.0 2 ------- null}
+ -t 0.54152 -s 41 -d 40 -p tcp -e 1040 -c 0 -i 3 -a 0 -x {0.0 37.0 2 ------- null}
- -t 0.54152 -s 41 -d 40 -p tcp -e 1040 -c 0 -i 3 -a 0 -x {0.0 37.0 2 ------- null}
h -t 0.54152 -s 41 -d 40 -p tcp -e 1040 -c 0 -i 3 -a 0 -x {0.0 37.0 -1 ------- null}
r -t 0.55152 -s 41 -d 40 -p tcp -e 1040 -c 0 -i 2 -a 0 -x {0.0 37.0 1 ------- null}
+ -t 0.55152 -s 40 -d 39 -p tcp -e 1040 -c 0 -i 2 -a 0 -x {0.0 37.0 1 ------- null}
- -t 0.55152 -s 40 -d 39 -p tcp -e 1040 -c 0 -i 2 -a 0 -x {0.0 37.0 1 ------- null}
h -t 0.55152 -s 40 -d 39 -p tcp -e 1040 -c 0 -i 2 -a 0 -x {0.0 37.0 -1 ------- null}
r -t 0.55984 -s 41 -d 40 -p tcp -e 1040 -c 0 -i 3 -a 0 -x {0.0 37.0 2 ------- null}
+ -t 0.55984 -s 40 -d 39 -p tcp -e 1040 -c 0 -i 3 -a 0 -x {0.0 37.0 2 ------- null}
- -t 0.55984 -s 40 -d 39 -p tcp -e 1040 -c 0 -i 3 -a 0 -x {0.0 37.0 2 ------- null}
h -t 0.55984 -s 40 -d 39 -p tcp -e 1040 -c 0 -i 3 -a 0 -x {0.0 37.0 -1 ------- null}
r -t 0.56984 -s 40 -d 39 -p tcp -e 1040 -c 0 -i 2 -a 0 -x {0.0 37.0 1 ------- null}
+ -t 0.56984 -s 39 -d 38 -p tcp -e 1040 -c 0 -i 2 -a 0 -x {0.0 37.0 1 ------- null}
- -t 0.56984 -s 39 -d 38 -p tcp -e 1040 -c 0 -i 2 -a 0 -x {0.0 37.0 1 ------- null}
h -t 0.56984 -s 39 -d 38 -p tcp -e 1040 -c 0 -i 2 -a 0 -x {0.0 37.0 -1 ------- null}
r -t 0.57816 -s 40 -d 39 -p tcp -e 1040 -c 0 -i 3 -a 0 -x {0.0 37.0 2 ------- null}
+ -t 0.57816 -s 39 -d 38 -p tcp -e 1040 -c 0 -i 3 -a 0 -x {0.0 37.0 2 ------- null}
- -t 0.57816 -s 39 -d 38 -p tcp -e 1040 -c 0 -i 3 -a 0 -x {0.0 37.0 2 ------- null}
h -t 0.57816 -s 39 -d 38 -p tcp -e 1040 -c 0 -i 3 -a 0 -x {0.0 37.0 -1 ------- null}
r -t 0.58816 -s 39 -d 38 -p tcp -e 1040 -c 0 -i 2 -a 0 -x {0.0 37.0 1 ------- null}
+ -t 0.58816 -s 38 -d 37 -p tcp -e 1040 -c 0 -i 2 -a 0 -x {0.0 37.0 1 ------- null}
- -t 0.58816 -s 38 -d 37 -p tcp -e 1040 -c 0 -i 2 -a 0 -x {0.0 37.0 1 ------- null}
h -t 0.58816 -s 38 -d 37 -p tcp -e 1040 -c 0 -i 2 -a 0 -x {0.0 37.0 -1 ------- null}
r -t 0.59648 -s 39 -d 38 -p tcp -e 1040 -c 0 -i 3 -a 0 -x {0.0 37.0 2 ------- null}
+ -t 0.59648 -s 38 -d 37 -p tcp -e 1040 -c 0 -i 3 -a 0 -x {0.0 37.0 2 ------- null}
- -t 0.59648 -s 38 -d 37 -p tcp -e 1040 -c 0 -i 3 -a 0 -x {0.0 37.0 2 ------- null}
h -t 0.59648 -s 38 -d 37 -p tcp -e 1040 -c 0 -i 3 -a 0 -x {0.0 37.0 -1 ------- null}
r -t 0.60648 -s 38 -d 37 -p tcp -e 1040 -c 0 -i 2 -a 0 -x {0.0 37.0 1 ------- null}
+ -t 0.60648 -s 37 -d 38 -p ack -e 40 -c 0 -i 4 -a 0 -x {37.0 0.0 1 ------- null}
- -t 0.60648 -s 37 -d 38 -p ack -e 40 -c 0 -i 4 -a 0 -x {37.0 0.0 1 ------- null}
h -t 0.60648 -s 37 -d 38 -p ack -e 40 -c 0 -i 4 -a 0 -x {37.0 0.0 -1 ------- null}
r -t 0.6148 -s 38 -d 37 -p tcp -e 1040 -c 0 -i 3 -a 0 -x {0.0 37.0 2 ------- null}
+ -t 0.6148 -s 37 -d 38 -p ack -e 40 -c 0 -i 5 -a 0 -x {37.0 0.0 2 ------- null}
- -t 0.6148 -s 37 -d 38 -p ack -e 40 -c 0 -i 5 -a 0 -x {37.0 0.0 2 ------- null}
h -t 0.6148 -s 37 -d 38 -p ack -e 40 -c 0 -i 5 -a 0 -x {37.0 0.0 -1 ------- null}
r -t 0.6168 -s 37 -d 38 -p ack -e 40 -c 0 -i 4 -a 0 -x {37.0 0.0 1 ------- null}
+ -t 0.6168 -s 38 -d 39 -p ack -e 40 -c 0 -i 4 -a 0 -x {37.0 0.0 1 ------- null}
- -t 0.6168 -s 38 -d 39 -p ack -e 40 -c 0 -i 4 -a 0 -x {37.0 0.0 1 ------- null}
h -t 0.6168 -s 38 -d 39 -p ack -e 40 -c 0 -i 4 -a 0 -x {37.0 0.0 -1 ------- null}
r -t 0.62512 -s 37 -d 38 -p ack -e 40 -c 0 -i 5 -a 0 -x {37.0 0.0 2 ------- null}
+ -t 0.62512 -s 38 -d 39 -p ack -e 40 -c 0 -i 5 -a 0 -x {37.0 0.0 2 ------- null}
- -t 0.62512 -s 38 -d 39 -p ack -e 40 -c 0 -i 5 -a 0 -x {37.0 0.0 2 ------- null}
h -t 0.62512 -s 38 -d 39 -p ack -e 40 -c 0 -i 5 -a 0 -x {37.0 0.0 -1 ------- null}
r -t 0.62712 -s 38 -d 39 -p ack -e 40 -c 0 -i 4 -a 0 -x {37.0 0.0 1 ------- null}
+ -t 0.62712 -s 39 -d 40 -p ack -e 40 -c 0 -i 4 -a 0 -x {37.0 0.0 1 ------- null}
- -t 0.62712 -s 39 -d 40 -p ack -e 40 -c 0 -i 4 -a 0 -x {37.0 0.0 1 ------- null}
h -t 0.62712 -s 39 -d 40 -p ack -e 40 -c 0 -i 4 -a 0 -x {37.0 0.0 -1 ------- null}
r -t 0.63544 -s 38 -d 39 -p ack -e 40 -c 0 -i 5 -a 0 -x {37.0 0.0 2 ------- null}
+ -t 0.63544 -s 39 -d 40 -p ack -e 40 -c 0 -i 5 -a 0 -x {37.0 0.0 2 ------- null}
- -t 0.63544 -s 39 -d 40 -p ack -e 40 -c 0 -i 5 -a 0 -x {37.0 0.0 2 ------- null}
h -t 0.63544 -s 39 -d 40 -p ack -e 40 -c 0 -i 5 -a 0 -x {37.0 0.0 -1 ------- null}
r -t 0.63744 -s 39 -d 40 -p ack -e 40 -c 0 -i 4 -a 0 -x {37.0 0.0 1 ------- null}
+ -t 0.63744 -s 40 -d 41 -p ack -e 40 -c 0 -i 4 -a 0 -x {37.0 0.0 1 ------- null}
- -t 0.63744 -s 40 -d 41 -p ack -e 40 -c 0 -i 4 -a 0 -x {37.0 0.0 1 ------- null}
h -t 0.63744 -s 40 -d 41 -p ack -e 40 -c 0 -i 4 -a 0 -x {37.0 0.0 -1 ------- null}
r -t 0.64576 -s 39 -d 40 -p ack -e 40 -c 0 -i 5 -a 0 -x {37.0 0.0 2 ------- null}
+ -t 0.64576 -s 40 -d 41 -p ack -e 40 -c 0 -i 5 -a 0 -x {37.0 0.0 2 ------- null}
- -t 0.64576 -s 40 -d 41 -p ack -e 40 -c 0 -i 5 -a 0 -x {37.0 0.0 2 ------- null}
h -t 0.64576 -s 40 -d 41 -p ack -e 40 -c 0 -i 5 -a 0 -x {37.0 0.0 -1 ------- null}
r -t 0.64776 -s 40 -d 41 -p ack -e 40 -c 0 -i 4 -a 0 -x {37.0 0.0 1 ------- null}
+ -t 0.64776 -s 41 -d 42 -p ack -e 40 -c 0 -i 4 -a 0 -x {37.0 0.0 1 ------- null}
- -t 0.64776 -s 41 -d 42 -p ack -e 40 -c 0 -i 4 -a 0 -x {37.0 0.0 1 ------- null}
h -t 0.64776 -s 41 -d 42 -p ack -e 40 -c 0 -i 4 -a 0 -x {37.0 0.0 -1 ------- null}
r -t 0.65608 -s 40 -d 41 -p ack -e 40 -c 0 -i 5 -a 0 -x {37.0 0.0 2 ------- null}
+ -t 0.65608 -s 41 -d 42 -p ack -e 40 -c 0 -i 5 -a 0 -x {37.0 0.0 2 ------- null}
- -t 0.65608 -s 41 -d 42 -p ack -e 40 -c 0 -i 5 -a 0 -x {37.0 0.0 2 ------- null}
h -t 0.65608 -s 41 -d 42 -p ack -e 40 -c 0 -i 5 -a 0 -x {37.0 0.0 -1 ------- null}
r -t 0.65808 -s 41 -d 42 -p ack -e 40 -c 0 -i 4 -a 0 -x {37.0 0.0 1 ------- null}
+ -t 0.65808 -s 42 -d 43 -p ack -e 40 -c 0 -i 4 -a 0 -x {37.0 0.0 1 ------- null}
- -t 0.65808 -s 42 -d 43 -p ack -e 40 -c 0 -i 4 -a 0 -x {37.0 0.0 1 ------- null}
h -t 0.65808 -s 42 -d 43 -p ack -e 40 -c 0 -i 4 -a 0 -x {37.0 0.0 -1 ------- null}
r -t 0.6664 -s 41 -d 42 -p ack -e 40 -c 0 -i 5 -a 0 -x {37.0 0.0 2 ------- null}
+ -t 0.6664 -s 42 -d 43 -p ack -e 40 -c 0 -i 5 -a 0 -x {37.0 0.0 2 ------- null}
- -t 0.6664 -s 42 -d 43 -p ack -e 40 -c 0 -i 5 -a 0 -x {37.0 0.0 2 ------- null}
h -t 0.6664 -s 42 -d 43 -p ack -e 40 -c 0 -i 5 -a 0 -x {37.0 0.0 -1 ------- null}
r -t 0.6684 -s 42 -d 43 -p ack -e 40 -c 0 -i 4 -a 0 -x {37.0 0.0 1 ------- null}
+ -t 0.6684 -s 43 -d 44 -p ack -e 40 -c 0 -i 4 -a 0 -x {37.0 0.0 1 ------- null}
- -t 0.6684 -s 43 -d 44 -p ack -e 40 -c 0 -i 4 -a 0 -x {37.0 0.0 1 ------- null}
h -t 0.6684 -s 43 -d 44 -p ack -e 40 -c 0 -i 4 -a 0 -x {37.0 0.0 -1 ------- null}
r -t 0.67672 -s 42 -d 43 -p ack -e 40 -c 0 -i 5 -a 0 -x {37.0 0.0 2 ------- null}
+ -t 0.67672 -s 43 -d 44 -p ack -e 40 -c 0 -i 5 -a 0 -x {37.0 0.0 2 ------- null}
- -t 0.67672 -s 43 -d 44 -p ack -e 40 -c 0 -i 5 -a 0 -x {37.0 0.0 2 ------- null}
h -t 0.67672 -s 43 -d 44 -p ack -e 40 -c 0 -i 5 -a 0 -x {37.0 0.0 -1 ------- null}
r -t 0.67872 -s 43 -d 44 -p ack -e 40 -c 0 -i 4 -a 0 -x {37.0 0.0 1 ------- null}
+ -t 0.67872 -s 44 -d 45 -p ack -e 40 -c 0 -i 4 -a 0 -x {37.0 0.0 1 ------- null}
- -t 0.67872 -s 44 -d 45 -p ack -e 40 -c 0 -i 4 -a 0 -x {37.0 0.0 1 ------- null}
h -t 0.67872 -s 44 -d 45 -p ack -e 40 -c 0 -i 4 -a 0 -x {37.0 0.0 -1 ------- null}
r -t 0.68704 -s 43 -d 44 -p ack -e 40 -c 0 -i 5 -a 0 -x {37.0 0.0 2 ------- null}
+ -t 0.68704 -s 44 -d 45 -p ack -e 40 -c 0 -i 5 -a 0 -x {37.0 0.0 2 ------- null}
- -t 0.68704 -s 44 -d 45 -p ack -e 40 -c 0 -i 5 -a 0 -x {37.0 0.0 2 ------- null}
h -t 0.68704 -s 44 -d 45 -p ack -e 40 -c 0 -i 5 -a 0 -x {37.0 0.0 -1 ------- null}
r -t 0.68904 -s 44 -d 45 -p ack -e 40 -c 0 -i 4 -a 0 -x {37.0 0.0 1 ------- null}
+ -t 0.68904 -s 45 -d 46 -p ack -e 40 -c 0 -i 4 -a 0 -x {37.0 0.0 1 ------- null}
- -t 0.68904 -s 45 -d 46 -p ack -e 40 -c 0 -i 4 -a 0 -x {37.0 0.0 1 ------- null}
h -t 0.68904 -s 45 -d 46 -p ack -e 40 -c 0 -i 4 -a 0 -x {37.0 0.0 -1 ------- null}
r -t 0.69736 -s 44 -d 45 -p ack -e 40 -c 0 -i 5 -a 0 -x {37.0 0.0 2 ------- null}
+ -t 0.69736 -s 45 -d 46 -p ack -e 40 -c 0 -i 5 -a 0 -x {37.0 0.0 2 ------- null}
- -t 0.69736 -s 45 -d 46 -p ack -e 40 -c 0 -i 5 -a 0 -x {37.0 0.0 2 ------- null}
h -t 0.69736 -s 45 -d 46 -p ack -e 40 -c 0 -i 5 -a 0 -x {37.0 0.0 -1 ------- null}
r -t 0.69936 -s 45 -d 46 -p ack -e 40 -c 0 -i 4 -a 0 -x {37.0 0.0 1 ------- null}
+ -t 0.69936 -s 46 -d 47 -p ack -e 40 -c 0 -i 4 -a 0 -x {37.0 0.0 1 ------- null}
- -t 0.69936 -s 46 -d 47 -p ack -e 40 -c 0 -i 4 -a 0 -x {37.0 0.0 1 ------- null}
h -t 0.69936 -s 46 -d 47 -p ack -e 40 -c 0 -i 4 -a 0 -x {37.0 0.0 -1 ------- null}
r -t 0.70768 -s 45 -d 46 -p ack -e 40 -c 0 -i 5 -a 0 -x {37.0 0.0 2 ------- null}
+ -t 0.70768 -s 46 -d 47 -p ack -e 40 -c 0 -i 5 -a 0 -x {37.0 0.0 2 ------- null}
- -t 0.70768 -s 46 -d 47 -p ack -e 40 -c 0 -i 5 -a 0 -x {37.0 0.0 2 ------- null}
h -t 0.70768 -s 46 -d 47 -p ack -e 40 -c 0 -i 5 -a 0 -x {37.0 0.0 -1 ------- null}
r -t 0.70968 -s 46 -d 47 -p ack -e 40 -c 0 -i 4 -a 0 -x {37.0 0.0 1 ------- null}
+ -t 0.70968 -s 47 -d 48 -p ack -e 40 -c 0 -i 4 -a 0 -x {37.0 0.0 1 ------- null}
- -t 0.70968 -s 47 -d 48 -p ack -e 40 -c 0 -i 4 -a 0 -x {37.0 0.0 1 ------- null}
h -t 0.70968 -s 47 -d 48 -p ack -e 40 -c 0 -i 4 -a 0 -x {37.0 0.0 -1 ------- null}
r -t 0.718 -s 46 -d 47 -p ack -e 40 -c 0 -i 5 -a 0 -x {37.0 0.0 2 ------- null}
+ -t 0.718 -s 47 -d 48 -p ack -e 40 -c 0 -i 5 -a 0 -x {37.0 0.0 2 ------- null}
- -t 0.718 -s 47 -d 48 -p ack -e 40 -c 0 -i 5 -a 0 -x {37.0 0.0 2 ------- null}
h -t 0.718 -s 47 -d 48 -p ack -e 40 -c 0 -i 5 -a 0 -x {37.0 0.0 -1 ------- null}
r -t 0.72 -s 47 -d 48 -p ack -e 40 -c 0 -i 4 -a 0 -x {37.0 0.0 1 ------- null}
+ -t 0.72 -s 48 -d 49 -p ack -e 40 -c 0 -i 4 -a 0 -x {37.0 0.0 1 ------- null}
- -t 0.72 -s 48 -d 49 -p ack -e 40 -c 0 -i 4 -a 0 -x {37.0 0.0 1 ------- null}
h -t 0.72 -s 48 -d 49 -p ack -e 40 -c 0 -i 4 -a 0 -x {37.0 0.0 -1 ------- null}