+ 0.1 0 49 tcp 40 ------- 0 0.0 37.0 0 0
- 0.1 0 49 tcp 40 ------- 0 0.0 37.0 0 0
r 0.11032 0 49 tcp 40 ------- 0 0.0 37.0 0 0
+ 0.11032 49 48 tcp 40 ------- 0 0.0 37.0 0 0
- 0.11032 49 48 tcp 40 ------- 0 0.0 37.0 0 0
r 0.12064 49 48 tcp 40 ------- 0 0.0 37.0 0 0
+ 0.12064 48 47 tcp 40 ------- 0 0.0 37.0 0 0
- 0.12064 48 47 tcp 40 ------- 0 0.0 37.0 0 0
r 0.13096 48 47 tcp 40 ------- 0 0.0 37.0 0 0
+ 0.13096 47 46 tcp 40 ------- 0 0.0 37.0 0 0
- 0.13096 47 46 tcp 40 ------- 0 0.0 37.0 0 0
r 0.14128 47 46 tcp 40 ------- 0 0.0 37.0 0 0
+ 0.14128 46 45 tcp 40 ------- 0 0.0 37.0 0 0
- 0.14128 46 45 tcp 40 ------- 0 0.0 37.0 0 0
r 0.1516 46 45 tcp 40 ------- 0 0.0 37.0 0 0
+ 0.1516 45 44 tcp 40 ------- 0 0.0 37.0 0 0
- 0.1516 45 44 tcp 40 ------- 0 0.0 37.0 0 0
r 0.16192 45 44 tcp 40 ------- 0 0.0 37.0 0 0
+ 0.16192 44 43 tcp 40 ------- 0 0.0 37.0 0 0
- 0.16192 44 43 tcp 40 ------- 0 0.0 37.0 0 0
r 0.17224 44 43 tcp 40 ------- 0 0.0 37.0 0 0
+ 0.17224 43 42 tcp 40 ------- 0 0.0 37.0 0 0
- 0.17224 43 42 tcp 40 ------- 0 0.0 37.0 0 0
r 0.18256 43 42 tcp 40 ------- 0 0.0 37.0 0 0
+ 0.18256 42 41 tcp 40 ------- 0 0.0 37.0 0 0
- 0.18256 42 41 tcp 40 ------- 0 0.0 37.0 0 0
r 0.19288 42 41 tcp 40 ------- 0 0.0 37.0 0 0
+ 0.19288 41 40 tcp 40 ------- 0 0.0 37.0 0 0
- 0.19288 41 40 tcp 40 ------- 0 0.0 37.0 0 0
r 0.2032 41 40 tcp 40 ------- 0 0.0 37.0 0 0
+ 0.2032 40 39 tcp 40 ------- 0 0.0 37.0 0 0
- 0.2032 40 39 tcp 40 ------- 0 0.0 37.0 0 0
r 0.21352 40 39 tcp 40 ------- 0 0.0 37.0 0 0
+ 0.21352 39 38 tcp 40 ------- 0 0.0 37.0 0 0
- 0.21352 39 38 tcp 40 ------- 0 0.0 37.0 0 0
r 0.22384 39 38 tcp 40 ------- 0 0.0 37.0 0 0
+ 0.22384 38 37 tcp 40 ------- 0 0.0 37.0 0 0
- 0.22384 38 37 tcp 40 ------- 0 0.0 37.0 0 0
r 0.23416 38 37 tcp 40 ------- 0 0.0 37.0 0 0
+ 0.23416 37 38 ack 40 ------- 0 37.0 0.0 0 1
- 0.23416 37 38 ack 40 ------- 0 37.0 0.0 0 1
r 0.24448 37 38 ack 40 ------- 0 37.0 0.0 0 1
+ 0.24448 38 39 ack 40 ------- 0 37.0 0.0 0 1
- 0.24448 38 39 ack 40 ------- 0 37.0 0.0 0 1
r 0.2548 38 39 ack 40 ------- 0 37.0 0.0 0 1
+ 0.2548 39 40 ack 40 ------- 0 37.0 0.0 0 1
- 0.2548 39 40 ack 40 ------- 0 37.0 0.0 0 1
r 0.26512 39 40 ack 40 ------- 0 37.0 0.0 0 1
+ 0.26512 40 41 ack 40 ------- 0 37.0 0.0 0 1
- 0.26512 40 41 ack 40 ------- 0 37.0 0.0 0 1
r 0.27544 40 41 ack 40 ------- 0 37.0 0.0 0 1
+ 0.27544 41 42 ack 40 ------- 0 37.0 0.0 0 1
- 0.27544 41 42 ack 40 ------- 0 37.0 0.0 0 1
r 0.28576 41 42 ack 40 ------- 0 37.0 0.0 0 1
+ 0.28576 42 43 ack 40 ------- 0 37.0 0.0 0 1
- 0.28576 42 43 ack 40 ------- 0 37.0 0.0 0 1
r 0.29608 42 43 ack 40 ------- 0 37.0 0.0 0 1
+ 0.29608 43 44 ack 40 ------- 0 37.0 0.0 0 1
- 0.29608 43 44 ack 40 ------- 0 37.0 0.0 0 1
r 0.3064 43 44 ack 40 ------- 0 37.0 0.0 0 1
+ 0.3064 44 45 ack 40 ------- 0 37.0 0.0 0 1
- 0.3064 44 45 ack 40 ------- 0 37.0 0.0 0 1
r 0.31672 44 45 ack 40 ------- 0 37.0 0.0 0 1
+ 0.31672 45 46 ack 40 ------- 0 37.0 0.0 0 1
- 0.31672 45 46 ack 40 ------- 0 37.0 0.0 0 1
r 0.32704 45 46 ack 40 ------- 0 37.0 0.0 0 1
+ 0.32704 46 47 ack 40 ------- 0 37.0 0.0 0 1
- 0.32704 46 47 ack 40 ------- 0 37.0 0.0 0 1
r 0.33736 46 47 ack 40 ------- 0 37.0 0.0 0 1
+ 0.33736 47 48 ack 40 ------- 0 37.0 0.0 0 1
- 0.33736 47 48 ack 40 ------- 0 37.0 0.0 0 1
r 0.34768 47 48 ack 40 ------- 0 37.0 0.0 0 1
+ 0.34768 48 49 ack 40 ------- 0 37.0 0.0 0 1
- 0.34768 48 49 ack 40 ------- 0 37.0 0.0 0 1
r 0.358 48 49 ack 40 ------- 0 37.0 0.0 0 1
+ 0.358 49 0 ack 40 ------- 0 37.0 0.0 0 1
- 0.358 49 0 ack 40 ------- 0 37.0 0.0 0 1
r 0.36832 49 0 ack 40 ------- 0 37.0 0.0 0 1
+ 0.36832 0 49 tcp 1040 ------- 0 0.0 37.0 1 2
- 0.36832 0 49 tcp 1040 ------- 0 0.0 37.0 1 2
+ 0.36832 0 49 tcp 1040 ------- 0 0.0 37.0 2 3
- 0.37664 0 49 tcp 1040 ------- 0 0.0 37.0 2 3
r 0.38664 0 49 tcp 1040 ------- 0 0.0 37.0 1 2
+ 0.38664 49 48 tcp 1040 ------- 0 0.0 37.0 1 2
- 0.38664 49 48 tcp 1040 ------- 0 0.0 37.0 1 2
r 0.39496 0 49 tcp 1040 ------- 0 0.0 37.0 2 3
+ 0.39496 49 48 tcp 1040 ------- 0 0.0 37.0 2 3
- 0.39496 49 48 tcp 1040 ------- 0 0.0 37.0 2 3
r 0.40496 49 48 tcp 1040 ------- 0 0.0 37.0 1 2
+ 0.40496 48 47 tcp 1040 ------- 0 0.0 37.0 1 2
- 0.40496 48 47 tcp 1040 ------- 0 0.0 37.0 1 2
r 0.41328 49 48 tcp 1040 ------- 0 0.0 37.0 2 3
+ 0.41328 48 47 tcp 1040 ------- 0 0.0 37.0 2 3
- 0.41328 48 47 tcp 1040 ------- 0 0.0 37.0 2 3
r 0.42328 48 47 tcp 1040 ------- 0 0.0 37.0 1 2
+ 0.42328 47 46 tcp 1040 ------- 0 0.0 37.0 1 2
- 0.42328 47 46 tcp 1040 ------- 0 0.0 37.0 1 2
r 0.4316 48 47 tcp 1040 ------- 0 0.0 37.0 2 3
+ 0.4316 47 46 tcp 1040 ------- 0 0.0 37.0 2 3
- 0.4316 47 46 tcp 1040 ------- 0 0.0 37.0 2 3
r 0.4416 47 46 tcp 1040 ------- 0 0.0 37.0 1 2
+ 0.4416 46 45 tcp 1040 ------- 0 0.0 37.0 1 2
- 0.4416 46 45 tcp 1040 ------- 0 0.0 37.0 1 2
r 0.44992 47 46 tcp 1040 ------- 0 0.0 37.0 2 3
+ 0.44992 46 45 tcp 1040 ------- 0 0.0 37.0 2 3
- 0.44992 46 45 tcp 1040 ------- 0 0.0 37.0 2 3
r 0.45992 46 45 tcp 1040 ------- 0 0.0 37.0 1 2
+ 0.45992 45 44 tcp 1040 ------- 0 0.0 37.0 1 2
- 0.45992 45 44 tcp 1040 ------- 0 0.0 37.0 1 2
r 0.46824 46 45 tcp 1040 ------- 0 0.0 37.0 2 3
+ 0.46824 45 44 tcp 1040 ------- 0 0.0 37.0 2 3
- 0.46824 45 44 tcp 1040 ------- 0 0.0 37.0 2 3
r 0.47824 45 44 tcp 1040 ------- 0 0.0 37.0 1 2
+ 0.47824 44 43 tcp 1040 ------- 0 0.0 37.0 1 2
- 0.47824 44 43 tcp 1040 ------- 0 0.0 37.0 1 2
r 0.48656 45 44 tcp 1040 ------- 0 0.0 37.0 2 3
+ 0.48656 44 43 tcp 1040 ------- 0 0.0 37.0 2 3
- 0.48656 44 43 tcp 1040 ------- 0 0.0 37.0 2 3
r 0.49656 44 43 tcp 1040 ------- 0 0.0 37.0 1 2
+ 0.49656 43 42 tcp 1040 ------- 0 0.0 37.0 1 2
- 0.49656 43 42 tcp 1040 ------- 0 0.0 37.0 1 2
r 0.50488 44 43 tcp 1040 ------- 0 0.0 37.0 2 3
+ 0.50488 43 42 tcp 1040 ------- 0 0.0 37.0 2 3
- 0.50488 43 42 tcp 1040 ------- 0 0.0 37.0 2 3
r 0.51488 43 42 tcp 1040 ------- 0 0.0 37.0 1 2
+ 0.51488 42 41 tcp 1040 ------- 0 0.0 37.0 1 2
- 0.51488 42 41 tcp 1040 ------- 0 0.0 37.0 1 2
r 0.5232 43 42 tcp 1040 ------- 0 0.0 37.0 2 3
+ 0.5232 42 41 tcp 1040 ------- 0 0.0 37.0 2 3
- 0.5232 42 41 tcp 1040 ------- 0 0.0 37.0 2 3
r 0.5332 42 41 tcp 1040 ------- 0 0.0 37.0 1 2
+ 0.5332 41 40 tcp 1040 ------- 0 0.0 37.0 1 2
- 0.5332 41 40 tcp 1040 ------- 0 0.0 37.0 1 2
r 0.54152 42 41 tcp 1040 ------- 0 0.0 37.0 2 3
+ 0.54152 41 40 tcp 1040 ------- 0 0.0 37.0 2 3
- 0.54152 41 40 tcp 1040 ------- 0 0.0 37.0 2 3
r 0.55152 41 40 tcp 1040 ------- 0 0.0 37.0 1 2
+ 0.55152 40 39 tcp 1040 ------- 0 0.0 37.0 1 2
- 0.55152 40 39 tcp 1040 ------- 0 0.0 37.0 1 2
r 0.55984 41 40 tcp 1040 ------- 0 0.0 37.0 2 3
+ 0.55984 40 39 tcp 1040 ------- 0 0.0 37.0 2 3
- 0.55984 40 39 tcp 1040 ------- 0 0.0 37.0 2 3
r 0.56984 40 39 tcp 1040 ------- 0 0.0 37.0 1 2
+ 0.56984 39 38 tcp 1040 ------- 0 0.0 37.0 1 2
- 0.56984 39 38 tcp 1040 ------- 0 0.0 37.0 1 2
r 0.57816 40 39 tcp 1040 ------- 0 0.0 37.0 2 3
+ 0.57816 39 38 tcp 1040 ------- 0 0.0 37.0 2 3
- 0.57816 39 38 tcp 1040 ------- 0 0.0 37.0 2 3
r 0.58816 39 38 tcp 1040 ------- 0 0.0 37.0 1 2
+ 0.58816 38 37 tcp 1040 ------- 0 0.0 37.0 1 2
- 0.58816 38 37 tcp 1040 ------- 0 0.0 37.0 1 2
r 0.59648 39 38 tcp 1040 ------- 0 0.0 37.0 2 3
+ 0.59648 38 37 tcp 1040 ------- 0 0.0 37.0 2 3
- 0.59648 38 37 tcp 1040 ------- 0 0.0 37.0 2 3
r 0.60648 38 37 tcp 1040 ------- 0 0.0 37.0 1 2
+ 0.60648 37 38 ack 40 ------- 0 37.0 0.0 1 4
- 0.60648 37 38 ack 40 ------- 0 37.0 0.0 1 4
r 0.6148 38 37 tcp 1040 ------- 0 0.0 37.0 2 3
+ 0.6148 37 38 ack 40 ------- 0 37.0 0.0 2 5
- 0.6148 37 38 ack 40 ------- 0 37.0 0.0 2 5
r 0.6168 37 38 ack 40 ------- 0 37.0 0.0 1 4
+ 0.6168 38 39 ack 40 ------- 0 37.0 0.0 1 4
- 0.6168 38 39 ack 40 ------- 0 37.0 0.0 1 4
r 0.62512 37 38 ack 40 ------- 0 37.0 0.0 2 5
+ 0.62512 38 39 ack 40 ------- 0 37.0 0.0 2 5
- 0.62512 38 39 ack 40 ------- 0 37.0 0.0 2 5
r 0.62712 38 39 ack 40 ------- 0 37.0 0.0 1 4
+ 0.62712 39 40 ack 40 ------- 0 37.0 0.0 1 4
- 0.62712 39 40 ack 40 ------- 0 37.0 0.0 1 4
r 0.63544 38 39 ack 40 ------- 0 37.0 0.0 2 5
+ 0.63544 39 40 ack 40 ------- 0 37.0 0.0 2 5
- 0.63544 39 40 ack 40 ------- 0 37.0 0.0 2 5
r 0.63744 39 40 ack 40 ------- 0 37.0 0.0 1 4
+ 0.63744 40 41 ack 40 ------- 0 37.0 0.0 1 4
- 0.63744 40 41 ack 40 ------- 0 37.0 0.0 1 4
r 0.64576 39 40 ack 40 ------- 0 37.0 0.0 2 5
+ 0.64576 40 41 ack 40 ------- 0 37.0 0.0 2 5
- 0.64576 40 41 ack 40 ------- 0 37.0 0.0 2 5
r 0.64776 40 41 ack 40 ------- 0 37.0 0.0 1 4
+ 0.64776 41 42 ack 40 ------- 0 37.0 0.0 1 4
- 0.64776 41 42 ack 40 ------- 0 37.0 0.0 1 4
r 0.65608 40 41 ack 40 ------- 0 37.0 0.0 2 5
+ 0.65608 41 42 ack 40 ------- 0 37.0 0.0 2 5
- 0.65608 41 42 ack 40 ------- 0 37.0 0.0 2 5
r 0.65808 41 42 ack 40 ------- 0 37.0 0.0 1 4
+ 0.65808 42 43 ack 40 ------- 0 37.0 0.0 1 4
- 0.65808 42 43 ack 40 ------- 0 37.0 0.0 1 4
r 0.6664 41 42 ack 40 ------- 0 37.0 0.0 2 5
+ 0.6664 42 43 ack 40 ------- 0 37.0 0.0 2 5
- 0.6664 42 43 ack 40 ------- 0 37.0 0.0 2 5
r 0.6684 42 43 ack 40 ------- 0 37.0 0.0 1 4
+ 0.6684 43 44 ack 40 ------- 0 37.0 0.0 1 4
- 0.6684 43 44 ack 40 ------- 0 37.0 0.0 1 4
r 0.67672 42 43 ack 40 ------- 0 37.0 0.0 2 5
+ 0.67672 43 44 ack 40 ------- 0 37.0 0.0 2 5
- 0.67672 43 44 ack 40 ------- 0 37.0 0.0 2 5
r 0.67872 43 44 ack 40 ------- 0 37.0 0.0 1 4
+ 0.67872 44 45 ack 40 ------- 0 37.0 0.0 1 4
- 0.67872 44 45 ack 40 ------- 0 37.0 0.0 1 4
r 0.68704 43 44 ack 40 ------- 0 37.0 0.0 2 5
+ 0.68704 44 45 ack 40 ------- 0 37.0 0.0 2 5
- 0.68704 44 45 ack 40 ------- 0 37.0 0.0 2 5
r 0.68904 44 45 ack 40 ------- 0 37.0 0.0 1 4
+ 0.68904 45 46 ack 40 ------- 0 37.0 0.0 1 4
- 0.68904 45 46 ack 40 ------- 0 37.0 0.0 1 4
r 0.69736 44 45 ack 40 ------- 0 37.0 0.0 2 5
+ 0.69736 45 46 ack 40 ------- 0 37.0 0.0 2 5
- 0.69736 45 46 ack 40 ------- 0 37.0 0.0 2 5
r 0.69936 45 46 ack 40 ------- 0 37.0 0.0 1 4
+ 0.69936 46 47 ack 40 ------- 0 37.0 0.0 1 4
- 0.69936 46 47 ack 40 ------- 0 37.0 0.0 1 4
r 0.70768 45 46 ack 40 ------- 0 37.0 0.0 2 5
+ 0.70768 46 47 ack 40 ------- 0 37.0 0.0 2 5
- 0.70768 46 47 ack 40 ------- 0 37.0 0.0 2 5
r 0.70968 46 47 ack 40 ------- 0 37.0 0.0 1 4
+ 0.70968 47 48 ack 40 ------- 0 37.0 0.0 1 4
- 0.70968 47 48 ack 40 ------- 0 37.0 0.0 1 4
r 0.718 46 47 ack 40 ------- 0 37.0 0.0 2 5
+ 0.718 47 48 ack 40 ------- 0 37.0 0.0 2 5
- 0.718 47 48 ack 40 ------- 0 37.0 0.0 2 5
r 0.72 47 48 ack 40 ------- 0 37.0 0.0 1 4
+ 0.72 48 49 ack 40 ------- 0 37.0 0.0 1 4
- 0.72 48 49 ack 40 ------- 0 37.0 0.0 1 4
r 0.72832 47 48 ack 40 ------- 0 37.0 0.0 2 5
+ 0.72832 48 49 ack 40 ------- 0 37.0 0.0 2 5
- 0.72832 48 49 ack 40 ------- 0 37.0 0.0 2 5
r 0.73032 48 49 ack 40 ------- 0 37.0 0.0 1 4
+ 0.73032 49 0 ack 40 ------- 0 37.0 0.0 1 4
- 0.73032 49 0 ack 40 ------- 0 37.0 0.0 1 4
r 0.73864 48 49 ack 40 ------- 0 37.0 0.0 2 5
+ 0.73864 49 0 ack 40 ------- 0 37.0 0.0 2 5
- 0.73864 49 0 ack 40 ------- 0 37.0 0.0 2 5
r 0.74064 49 0 ack 40 ------- 0 37.0 0.0 1 4
+ 0.74064 0 49 tcp 1040 ------- 0 0.0 37.0 3 6
- 0.74064 0 49 tcp 1040 ------- 0 0.0 37.0 3 6
+ 0.74064 0 49 tcp 1040 ------- 0 0.0 37.0 4 7
+ 0.74064 0 49 tcp 1040 ------- 0 0.0 37.0 5 8
+ 0.74064 0 49 tcp 1040 ------- 0 0.0 37.0 6 9
+ 0.74064 0 49 tcp 1040 ------- 0 0.0 37.0 7 10
+ 0.74064 0 49 tcp 1040 ------- 0 0.0 37.0 8 11
+ 0.74064 0 49 tcp 1040 ------- 0 0.0 37.0 9 12
+ 0.74064 0 49 tcp 1040 ------- 0 0.0 37.0 10 13
+ 0.74064 0 49 tcp 1040 ------- 0 0.0 37.0 11 14
+ 0.74064 0 49 tcp 1040 ------- 0 0.0 37.0 12 15
+ 0.74064 0 49 tcp 1040 ------- 0 0.0 37.0 13 16
+ 0.74064 0 49 tcp 1040 ------- 0 0.0 37.0 14 17
+ 0.74064 0 49 tcp 1040 ------- 0 0.0 37.0 15 18
+ 0.74064 0 49 tcp 1040 ------- 0 0.0 37.0 16 19
+ 0.74064 0 49 tcp 1040 ------- 0 0.0 37.0 17 20
+ 0.74064 0 49 tcp 1040 ------- 0 0.0 37.0 18 21
+ 0.74064 0 49 tcp 1040 ------- 0 0.0 37.0 19 22
+ 0.74064 0 49 tcp 1040 ------- 0 0.0 37.0 20 23
+ 0.74064 0 49 tcp 1040 ------- 0 0.0 37.0 21 24
- 0.74896 0 49 tcp 1040 ------- 0 0.0 37.0 4 7
r 0.74896 49 0 ack 40 ------- 0 37.0 0.0 2 5
+ 0.74896 0 49 tcp 1040 ------- 0 0.0 37.0 22 25
- 0.75728 0 49 tcp 1040 ------- 0 0.0 37.0 5 8
r 0.75896 0 49 tcp 1040 ------- 0 0.0 37.0 3 6
+ 0.75896 49 48 tcp 1040 ------- 0 0.0 37.0 3 6
- 0.75896 49 48 tcp 1040 ------- 0 0.0 37.0 3 6
- 0.7656 0 49 tcp 1040 ------- 0 0.0 37.0 6 9
r 0.76728 0 49 tcp 1040 ------- 0 0.0 37.0 4 7
+ 0.76728 49 48 tcp 1040 ------- 0 0.0 37.0 4 7
- 0.76728 49 48 tcp 1040 ------- 0 0.0 37.0 4 7
- 0.77392 0 49 tcp 1040 ------- 0 0.0 37.0 7 10
r 0.7756 0 49 tcp 1040 ------- 0 0.0 37.0 5 8
+ 0.7756 49 48 tcp 1040 ------- 0 0.0 37.0 5 8
- 0.7756 49 48 tcp 1040 ------- 0 0.0 37.0 5 8
r 0.77728 49 48 tcp 1040 ------- 0 0.0 37.0 3 6
+ 0.77728 48 47 tcp 1040 ------- 0 0.0 37.0 3 6
- 0.77728 48 47 tcp 1040 ------- 0 0.0 37.0 3 6
- 0.78224 0 49 tcp 1040 ------- 0 0.0 37.0 8 11
r 0.78392 0 49 tcp 1040 ------- 0 0.0 37.0 6 9
+ 0.78392 49 48 tcp 1040 ------- 0 0.0 37.0 6 9
- 0.78392 49 48 tcp 1040 ------- 0 0.0 37.0 6 9
r 0.7856 49 48 tcp 1040 ------- 0 0.0 37.0 4 7
+ 0.7856 48 47 tcp 1040 ------- 0 0.0 37.0 4 7
- 0.7856 48 47 tcp 1040 ------- 0 0.0 37.0 4 7
- 0.79056 0 49 tcp 1040 ------- 0 0.0 37.0 9 12
r 0.79224 0 49 tcp 1040 ------- 0 0.0 37.0 7 10
+ 0.79224 49 48 tcp 1040 ------- 0 0.0 37.0 7 10
- 0.79224 49 48 tcp 1040 ------- 0 0.0 37.0 7 10
r 0.79392 49 48 tcp 1040 ------- 0 0.0 37.0 5 8
+ 0.79392 48 47 tcp 1040 ------- 0 0.0 37.0 5 8
- 0.79392 48 47 tcp 1040 ------- 0 0.0 37.0 5 8
r 0.7956 48 47 tcp 1040 ------- 0 0.0 37.0 3 6
+ 0.7956 47 46 tcp 1040 ------- 0 0.0 37.0 3 6
- 0.7956 47 46 tcp 1040 ------- 0 0.0 37.0 3 6
- 0.79888 0 49 tcp 1040 ------- 0 0.0 37.0 10 13
r 0.80056 0 49 tcp 1040 ------- 0 0.0 37.0 8 11
+ 0.80056 49 48 tcp 1040 ------- 0 0.0 37.0 8 11
- 0.80056 49 48 tcp 1040 ------- 0 0.0 37.0 8 11
r 0.80224 49 48 tcp 1040 ------- 0 0.0 37.0 6 9
+ 0.80224 48 47 tcp 1040 ------- 0 0.0 37.0 6 9
- 0.80224 48 47 tcp 1040 ------- 0 0.0 37.0 6 9
r 0.80392 48 47 tcp 1040 ------- 0 0.0 37.0 4 7
+ 0.80392 47 46 tcp 1040 ------- 0 0.0 37.0 4 7
- 0.80392 47 46 tcp 1040 ------- 0 0.0 37.0 4 7
- 0.8072 0 49 tcp 1040 ------- 0 0.0 37.0 11 14
r 0.80888 0 49 tcp 1040 ------- 0 0.0 37.0 9 12
+ 0.80888 49 48 tcp 1040 ------- 0 0.0 37.0 9 12
- 0.80888 49 48 tcp 1040 ------- 0 0.0 37.0 9 12
r 0.81056 49 48 tcp 1040 ------- 0 0.0 37.0 7 10
+ 0.81056 48 47 tcp 1040 ------- 0 0.0 37.0 7 10
- 0.81056 48 47 tcp 1040 ------- 0 0.0 37.0 7 10
r 0.81224 48 47 tcp 1040 ------- 0 0.0 37.0 5 8
+ 0.81224 47 46 tcp 1040 ------- 0 0.0 37.0 5 8
- 0.81224 47 46 tcp 1040 ------- 0 0.0 37.0 5 8
r 0.81392 47 46 tcp 1040 ------- 0 0.0 37.0 3 6
+ 0.81392 46 45 tcp 1040 ------- 0 0.0 37.0 3 6
- 0.81392 46 45 tcp 1040 ------- 0 0.0 37.0 3 6
- 0.81552 0 49 tcp 1040 ------- 0 0.0 37.0 12 15
r 0.8172 0 49 tcp 1040 ------- 0 0.0 37.0 10 13
+ 0.8172 49 48 tcp 1040 ------- 0 0.0 37.0 10 13
- 0.8172 49 48 tcp 1040 ------- 0 0.0 37.0 10 13
r 0.81888 49 48 tcp 1040 ------- 0 0.0 37.0 8 11
+ 0.81888 48 47 tcp 1040 ------- 0 0.0 37.0 8 11
- 0.81888 48 47 tcp 1040 ------- 0 0.0 37.0 8 11
r 0.82056 48 47 tcp 1040 ------- 0 0.0 37.0 6 9
+ 0.82056 47 46 tcp 1040 ------- 0 0.0 37.0 6 9
- 0.82056 47 46 tcp 1040 ------- 0 0.0 37.0 6 9
r 0.82224 47 46 tcp 1040 ------- 0 0.0 37.0 4 7
+ 0.82224 46 45 tcp 1040 ------- 0 0.0 37.0 4 7
- 0.82224 46 45 tcp 1040 ------- 0 0.0 37.0 4 7
- 0.82384 0 49 tcp 1040 ------- 0 0.0 37.0 13 16
r 0.82552 0 49 tcp 1040 ------- 0 0.0 37.0 11 14
+ 0.82552 49 48 tcp 1040 ------- 0 0.0 37.0 11 14
- 0.82552 49 48 tcp 1040 ------- 0 0.0 37.0 11 14
r 0.8272 49 48 tcp 1040 ------- 0 0.0 37.0 9 12
+ 0.8272 48 47 tcp 1040 ------- 0 0.0 37.0 9 12
- 0.8272 48 47 tcp 1040 ------- 0 0.0 37.0 9 12
r 0.82888 48 47 tcp 1040 ------- 0 0.0 37.0 7 10
+ 0.82888 47 46 tcp 1040 ------- 0 0.0 37.0 7 10
- 0.82888 47 46 tcp 1040 ------- 0 0.0 37.0 7 10
r 0.83056 47 46 tcp 1040 ------- 0 0.0 37.0 5 8
+ 0.83056 46 45 tcp 1040 ------- 0 0.0 37.0 5 8
- 0.83056 46 45 tcp 1040 ------- 0 0.0 37.0 5 8
- 0.83216 0 49 tcp 1040 ------- 0 0.0 37.0 14 17
r 0.83224 46 45 tcp 1040 ------- 0 0.0 37.0 3 6
+ 0.83224 45 44 tcp 1040 ------- 0 0.0 37.0 3 6
- 0.83224 45 44 tcp 1040 ------- 0 0.0 37.0 3 6
r 0.83384 0 49 tcp 1040 ------- 0 0.0 37.0 12 15
+ 0.83384 49 48 tcp 1040 ------- 0 0.0 37.0 12 15
- 0.83384 49 48 tcp 1040 ------- 0 0.0 37.0 12 15
r 0.83552 49 48 tcp 1040 ------- 0 0.0 37.0 10 13
+ 0.83552 48 47 tcp 1040 ------- 0 0.0 37.0 10 13
- 0.83552 48 47 tcp 1040 ------- 0 0.0 37.0 10 13
r 0.8372 48 47 tcp 1040 ------- 0 0.0 37.0 8 11
+ 0.8372 47 46 tcp 1040 ------- 0 0.0 37.0 8 11
- 0.8372 47 46 tcp 1040 ------- 0 0.0 37.0 8 11
r 0.83888 47 46 tcp 1040 ------- 0 0.0 37.0 6 9
+ 0.83888 46 45 tcp 1040 ------- 0 0.0 37.0 6 9
- 0.83888 46 45 tcp 1040 ------- 0 0.0 37.0 6 9
- 0.84048 0 49 tcp 1040 ------- 0 0.0 37.0 15 18
r 0.84056 46 45 tcp 1040 ------- 0 0.0 37.0 4 7
+ 0.84056 45 44 tcp 1040 ------- 0 0.0 37.0 4 7
- 0.84056 45 44 tcp 1040 ------- 0 0.0 37.0 4 7
r 0.84216 0 49 tcp 1040 ------- 0 0.0 37.0 13 16
+ 0.84216 49 48 tcp 1040 ------- 0 0.0 37.0 13 16
- 0.84216 49 48 tcp 1040 ------- 0 0.0 37.0 13 16
r 0.84384 49 48 tcp 1040 ------- 0 0.0 37.0 11 14
+ 0.84384 48 47 tcp 1040 ------- 0 0.0 37.0 11 14
- 0.84384 48 47 tcp 1040 ------- 0 0.0 37.0 11 14
r 0.84552 48 47 tcp 1040 ------- 0 0.0 37.0 9 12
+ 0.84552 47 46 tcp 1040 ------- 0 0.0 37.0 9 12
- 0.84552 47 46 tcp 1040 ------- 0 0.0 37.0 9 12
r 0.8472 47 46 tcp 1040 ------- 0 0.0 37.0 7 10
+ 0.8472 46 45 tcp 1040 ------- 0 0.0 37.0 7 10
- 0.8472 46 45 tcp 1040 ------- 0 0.0 37.0 7 10
- 0.8488 0 49 tcp 1040 ------- 0 0.0 37.0 16 19
r 0.84888 46 45 tcp 1040 ------- 0 0.0 37.0 5 8
+ 0.84888 45 44 tcp 1040 ------- 0 0.0 37.0 5 8
- 0.84888 45 44 tcp 1040 ------- 0 0.0 37.0 5 8
r 0.85048 0 49 tcp 1040 ------- 0 0.0 37.0 14 17
+ 0.85048 49 48 tcp 1040 ------- 0 0.0 37.0 14 17
- 0.85048 49 48 tcp 1040 ------- 0 0.0 37.0 14 17
r 0.85056 45 44 tcp 1040 ------- 0 0.0 37.0 3 6
+ 0.85056 44 43 tcp 1040 ------- 0 0.0 37.0 3 6
- 0.85056 44 43 tcp 1040 ------- 0 0.0 37.0 3 6
r 0.85216 49 48 tcp 1040 ------- 0 0.0 37.0 12 15
+ 0.85216 48 47 tcp 1040 ------- 0 0.0 37.0 12 15
- 0.85216 48 47 tcp 1040 ------- 0 0.0 37.0 12 15
r 0.85384 48 47 tcp 1040 ------- 0 0.0 37.0 10 13
+ 0.85384 47 46 tcp 1040 ------- 0 0.0 37.0 10 13
- 0.85384 47 46 tcp 1040 ------- 0 0.0 37.0 10 13
r 0.85552 47 46 tcp 1040 ------- 0 0.0 37.0 8 11
+ 0.85552 46 45 tcp 1040 ------- 0 0.0 37.0 8 11
- 0.85552 46 45 tcp 1040 ------- 0 0.0 37.0 8 11
- 0.85712 0 49 tcp 1040 ------- 0 0.0 37.0 17 20
r 0.8572 46 45 tcp 1040 ------- 0 0.0 37.0 6 9
+ 0.8572 45 44 tcp 1040 ------- 0 0.0 37.0 6 9
- 0.8572 45 44 tcp 1040 ------- 0 0.0 37.0 6 9
r 0.8588 0 49 tcp 1040 ------- 0 0.0 37.0 15 18
+ 0.8588 49 48 tcp 1040 ------- 0 0.0 37.0 15 18
- 0.8588 49 48 tcp 1040 ------- 0 0.0 37.0 15 18
r 0.85888 45 44 tcp 1040 ------- 0 0.0 37.0 4 7
+ 0.85888 44 43 tcp 1040 ------- 0 0.0 37.0 4 7
- 0.85888 44 43 tcp 1040 ------- 0 0.0 37.0 4 7
r 0.86048 49 48 tcp 1040 ------- 0 0.0 37.0 13 16
+ 0.86048 48 47 tcp 1040 ------- 0 0.0 37.0 13 16
- 0.86048 48 47 tcp 1040 ------- 0 0.0 37.0 13 16
r 0.86216 48 47 tcp 1040 ------- 0 0.0 37.0 11 14
+ 0.86216 47 46 tcp 1040 ------- 0 0.0 37.0 11 14
- 0.86216 47 46 tcp 1040 ------- 0 0.0 37.0 11 14
r 0.86384 47 46 tcp 1040 ------- 0 0.0 37.0 9 12
+ 0.86384 46 45 tcp 1040 ------- 0 0.0 37.0 9 12
- 0.86384 46 45 tcp 1040 ------- 0 0.0 37.0 9 12
- 0.86544 0 49 tcp 1040 ------- 0 0.0 37.0 18 21
r 0.86552 46 45 tcp 1040 ------- 0 0.0 37.0 7 10
+ 0.86552 45 44 tcp 1040 ------- 0 0.0 37.0 7 10
- 0.86552 45 44 tcp 1040 ------- 0 0.0 37.0 7 10
r 0.86712 0 49 tcp 1040 ------- 0 0.0 37.0 16 19
+ 0.86712 49 48 tcp 1040 ------- 0 0.0 37.0 16 19
- 0.86712 49 48 tcp 1040 ------- 0 0.0 37.0 16 19
r 0.8672 45 44 tcp 1040 ------- 0 0.0 37.0 5 8
+ 0.8672 44 43 tcp 1040 ------- 0 0.0 37.0 5 8
- 0.8672 44 43 tcp 1040 ------- 0 0.0 37.0 5 8
r 0.8688 49 48 tcp 1040 ------- 0 0.0 37.0 14 17
+ 0.8688 48 47 tcp 1040 ------- 0 0.0 37.0 14 17
- 0.8688 48 47 tcp 1040 ------- 0 0.0 37.0 14 17
r 0.86888 44 43 tcp 1040 ------- 0 0.0 37.0 3 6
+ 0.86888 43 42 tcp 1040 ------- 0 0.0 37.0 3 6
- 0.86888 43 42 tcp 1040 ------- 0 0.0 37.0 3 6
r 0.87048 48 47 tcp 1040 ------- 0 0.0 37.0 12 15
+ 0.87048 47 46 tcp 1040 ------- 0 0.0 37.0 12 15
- 0.87048 47 46 tcp 1040 ------- 0 0.0 37.0 12 15
r 0.87216 47 46 tcp 1040 ------- 0 0.0 37.0 10 13
+ 0.87216 46 45 tcp 1040 ------- 0 0.0 37.0 10 13
- 0.87216 46 45 tcp 1040 ------- 0 0.0 37.0 10 13
- 0.87376 0 49 tcp 1040 ------- 0 0.0 37.0 19 22
r 0.87384 46 45 tcp 1040 ------- 0 0.0 37.0 8 11
+ 0.87384 45 44 tcp 1040 ------- 0 0.0 37.0 8 11
- 0.87384 45 44 tcp 1040 ------- 0 0.0 37.0 8 11
r 0.87544 0 49 tcp 1040 ------- 0 0.0 37.0 17 20
+ 0.87544 49 48 tcp 1040 ------- 0 0.0 37.0 17 20
- 0.87544 49 48 tcp 1040 ------- 0 0.0 37.0 17 20
r 0.87552 45 44 tcp 1040 ------- 0 0.0 37.0 6 9
+ 0.87552 44 43 tcp 1040 ------- 0 0.0 37.0 6 9
- 0.87552 44 43 tcp 1040 ------- 0 0.0 37.0 6 9
r 0.87712 49 48 tcp 1040 ------- 0 0.0 37.0 15 18
+ 0.87712 48 47 tcp 1040 ------- 0 0.0 37.0 15 18
- 0.87712 48 47 tcp 1040 ------- 0 0.0 37.0 15 18
r 0.8772 44 43 tcp 1040 ------- 0 0.0 37.0 4 7
+ 0.8772 43 42 tcp 1040 ------- 0 0.0 37.0 4 7
- 0.8772 43 42 tcp 1040 ------- 0 0.0 37.0 4 7
r 0.8788 48 47 tcp 1040 ------- 0 0.0 37.0 13 16
+ 0.8788 47 46 tcp 1040 ------- 0 0.0 37.0 13 16
- 0.8788 47 46 tcp 1040 ------- 0 0.0 37.0 13 16
r 0.88048 47 46 tcp 1040 ------- 0 0.0 37.0 11 14
+ 0.88048 46 45 tcp 1040 ------- 0 0.0 37.0 11 14
- 0.88048 46 45 tcp 1040 ------- 0 0.0 37.0 11 14
- 0.88208 0 49 tcp 1040 ------- 0 0.0 37.0 20 23
r 0.88216 46 45 tcp 1040 ------- 0 0.0 37.0 9 12
+ 0.88216 45 44 tcp 1040 ------- 0 0.0 37.0 9 12
- 0.88216 45 44 tcp 1040 ------- 0 0.0 37.0 9 12
r 0.88376 0 49 tcp 1040 ------- 0 0.0 37.0 18 21
+ 0.88376 49 48 tcp 1040 ------- 0 0.0 37.0 18 21
- 0.88376 49 48 tcp 1040 ------- 0 0.0 37.0 18 21
r 0.88384 45 44 tcp 1040 ------- 0 0.0 37.0 7 10
+ 0.88384 44 43 tcp 1040 ------- 0 0.0 37.0 7 10
- 0.88384 44 43 tcp 1040 ------- 0 0.0 37.0 7 10
r 0.88544 49 48 tcp 1040 ------- 0 0.0 37.0 16 19
+ 0.88544 48 47 tcp 1040 ------- 0 0.0 37.0 16 19
- 0.88544 48 47 tcp 1040 ------- 0 0.0 37.0 16 19
r 0.88552 44 43 tcp 1040 ------- 0 0.0 37.0 5 8
+ 0.88552 43 42 tcp 1040 ------- 0 0.0 37.0 5 8
- 0.88552 43 42 tcp 1040 ------- 0 0.0 37.0 5 8
r 0.88712 48 47 tcp 1040 ------- 0 0.0 37.0 14 17
+ 0.88712 47 46 tcp 1040 ------- 0 0.0 37.0 14 17
- 0.88712 47 46 tcp 1040 ------- 0 0.0 37.0 14 17
r 0.8872 43 42 tcp 1040 ------- 0 0.0 37.0 3 6
+ 0.8872 42 41 tcp 1040 ------- 0 0.0 37.0 3 6
- 0.8872 42 41 tcp 1040 ------- 0 0.0 37.0 3 6
r 0.8888 47 46 tcp 1040 ------- 0 0.0 37.0 12 15
+ 0.8888 46 45 tcp 1040 ------- 0 0.0 37.0 12 15
- 0.8888 46 45 tcp 1040 ------- 0 0.0 37.0 12 15
- 0.8904 0 49 tcp 1040 ------- 0 0.0 37.0 21 24
r 0.89048 46 45 tcp 1040 ------- 0 0.0 37.0 10 13
+ 0.89048 45 44 tcp 1040 ------- 0 0.0 37.0 10 13
- 0.89048 45 44 tcp 1040 ------- 0 0.0 37.0 10 13
r 0.89208 0 49 tcp 1040 ------- 0 0.0 37.0 19 22
+ 0.89208 49 48 tcp 1040 ------- 0 0.0 37.0 19 22
- 0.89208 49 48 tcp 1040 ------- 0 0.0 37.0 19 22
r 0.89216 45 44 tcp 1040 ------- 0 0.0 37.0 8 11
+ 0.89216 44 43 tcp 1040 ------- 0 0.0 37.0 8 11
- 0.89216 44 43 tcp 1040 ------- 0 0.0 37.0 8 11
r 0.89376 49 48 tcp 1040 ------- 0 0.0 37.0 17 20
+ 0.89376 48 47 tcp 1040 ------- 0 0.0 37.0 17 20
- 0.89376 48 47 tcp 1040 ------- 0 0.0 37.0 17 20
r 0.89384 44 43 tcp 1040 ------- 0 0.0 37.0 6 9
+ 0.89384 43 42 tcp 1040 ------- 0 0.0 37.0 6 9
- 0.89384 43 42 tcp 1040 ------- 0 0.0 37.0 6 9
r 0.89544 48 47 tcp 1040 ------- 0 0.0 37.0 15 18
+ 0.89544 47 46 tcp 1040 ------- 0 0.0 37.0 15 18
- 0.89544 47 46 tcp 1040 ------- 0 0.0 37.0 15 18
r 0.89552 43 42 tcp 1040 ------- 0 0.0 37.0 4 7
+ 0.89552 42 41 tcp 1040 ------- 0 0.0 37.0 4 7
- 0.89552 42 41 tcp 1040 ------- 0 0.0 37.0 4 7
r 0.89712 47 46 tcp 1040 ------- 0 0.0 37.0 13 16
+ 0.89712 46 45 tcp 1040 ------- 0 0.0 37.0 13 16
- 0.89712 46 45 tcp 1040 ------- 0 0.0 37.0 13 16
- 0.89872 0 49 tcp 1040 ------- 0 0.0 37.0 22 25
r 0.8988 46 45 tcp 1040 ------- 0 0.0 37.0 11 14
+ 0.8988 45 44 tcp 1040 ------- 0 0.0 37.0 11 14
- 0.8988 45 44 tcp 1040 ------- 0 0.0 37.0 11 14
r 0.9004 0 49 tcp 1040 ------- 0 0.0 37.0 20 23
+ 0.9004 49 48 tcp 1040 ------- 0 0.0 37.0 20 23
- 0.9004 49 48 tcp 1040 ------- 0 0.0 37.0 20 23
r 0.90048 45 44 tcp 1040 ------- 0 0.0 37.0 9 12
+ 0.90048 44 43 tcp 1040 ------- 0 0.0 37.0 9 12
- 0.90048 44 43 tcp 1040 ------- 0 0.0 37.0 9 12
r 0.90208 49 48 tcp 1040 ------- 0 0.0 37.0 18 21
+ 0.90208 48 47 tcp 1040 ------- 0 0.0 37.0 18 21
- 0.90208 48 47 tcp 1040 ------- 0 0.0 37.0 18 21
r 0.90216 44 43 tcp 1040 ------- 0 0.0 37.0 7 10
+ 0.90216 43 42 tcp 1040 ------- 0 0.0 37.0 7 10
- 0.90216 43 42 tcp 1040 ------- 0 0.0 37.0 7 10
r 0.90376 48 47 tcp 1040 ------- 0 0.0 37.0 16 19
+ 0.90376 47 46 tcp 1040 ------- 0 0.0 37.0 16 19
- 0.90376 47 46 tcp 1040 ------- 0 0.0 37.0 16 19
r 0.90384 43 42 tcp 1040 ------- 0 0.0 37.0 5 8
+ 0.90384 42 41 tcp 1040 ------- 0 0.0 37.0 5 8
- 0.90384 42 41 tcp 1040 ------- 0 0.0 37.0 5 8
r 0.90544 47 46 tcp 1040 ------- 0 0.0 37.0 14 17
+ 0.90544 46 45 tcp 1040 ------- 0 0.0 37.0 14 17
- 0.90544 46 45 tcp 1040 ------- 0 0.0 37.0 14 17
r 0.90552 42 41 tcp 1040 ------- 0 0.0 37.0 3 6
+ 0.90552 41 40 tcp 1040 ------- 0 0.0 37.0 3 6
- 0.90552 41 40 tcp 1040 ------- 0 0.0 37.0 3 6
r 0.90712 46 45 tcp 1040 ------- 0 0.0 37.0 12 15
+ 0.90712 45 44 tcp 1040 ------- 0 0.0 37.0 12 15
- 0.90712 45 44 tcp 1040 ------- 0 0.0 37.0 12 15
r 0.90872 0 49 tcp 1040 ------- 0 0.0 37.0 21 24
+ 0.90872 49 48 tcp 1040 ------- 0 0.0 37.0 21 24
- 0.90872 49 48 tcp 1040 ------- 0 0.0 37.0 21 24
r 0.9088 45 44 tcp 1040 ------- 0 0.0 37.0 10 13
+ 0.9088 44 43 tcp 1040 ------- 0 0.0 37.0 10 13
- 0.9088 44 43 tcp 1040 ------- 0 0.0 37.0 10 13
r 0.9104 49 48 tcp 1040 ------- 0 0.0 37.0 19 22
+ 0.9104 48 47 tcp 1040 ------- 0 0.0 37.0 19 22
- 0.9104 48 47 tcp 1040 ------- 0 0.0 37.0 19 22
r 0.91048 44 43 tcp 1040 ------- 0 0.0 37.0 8 11
+ 0.91048 43 42 tcp 1040 ------- 0 0.0 37.0 8 11
- 0.91048 43 42 tcp 1040 ------- 0 0.0 37.0 8 11
r 0.91208 48 47 tcp 1040 ------- 0 0.0 37.0 17 20
+ 0.91208 47 46 tcp 1040 ------- 0 0.0 37.0 17 20
- 0.91208 47 46 tcp 1040 ------- 0 0.0 37.0 17 20
r 0.91216 43 42 tcp 1040 ------- 0 0.0 37.0 6 9
+ 0.91216 42 41 tcp 1040 ------- 0 0.0 37.0 6 9
- 0.91216 42 41 tcp 1040 ------- 0 0.0 37.0 6 9
r 0.91376 47 46 tcp 1040 ------- 0 0.0 37.0 15 18
+ 0.91376 46 45 tcp 1040 ------- 0 0.0 37.0 15 18
- 0.91376 46 45 tcp 1040 ------- 0 0.0 37.0 15 18
r 0.91384 42 41 tcp 1040 ------- 0 0.0 37.0 4 7
+ 0.91384 41 40 tcp 1040 ------- 0 0.0 37.0 4 7
- 0.91384 41 40 tcp 1040 ------- 0 0.0 37.0 4 7
r 0.91544 46 45 tcp 1040 ------- 0 0.0 37.0 13 16
+ 0.91544 45 44 tcp 1040 ------- 0 0.0 37.0 13 16
- 0.91544 45 44 tcp 1040 ------- 0 0.0 37.0 13 16
r 0.91704 0 49 tcp 1040 ------- 0 0.0 37.0 22 25
+ 0.91704 49 48 tcp 1040 ------- 0 0.0 37.0 22 25
- 0.91704 49 48 tcp 1040 ------- 0 0.0 37.0 22 25
r 0.91712 45 44 tcp 1040 ------- 0 0.0 37.0 11 14
+ 0.91712 44 43 tcp 1040 ------- 0 0.0 37.0 11 14
- 0.91712 44 43 tcp 1040 ------- 0 0.0 37.0 11 14
r 0.91872 49 48 tcp 1040 ------- 0 0.0 37.0 20 23
+ 0.91872 48 47 tcp 1040 ------- 0 0.0 37.0 20 23
- 0.91872 48 47 tcp 1040 ------- 0 0.0 37.0 20 23
r 0.9188 44 43 tcp 1040 ------- 0 0.0 37.0 9 12
+ 0.9188 43 42 tcp 1040 ------- 0 0.0 37.0 9 12
- 0.9188 43 42 tcp 1040 ------- 0 0.0 37.0 9 12
r 0.9204 48 47 tcp 1040 ------- 0 0.0 37.0 18 21
+ 0.9204 47 46 tcp 1040 ------- 0 0.0 37.0 18 21
- 0.9204 47 46 tcp 1040 ------- 0 0.0 37.0 18 21
r 0.92048 43 42 tcp 1040 ------- 0 0.0 37.0 7 10
+ 0.92048 42 41 tcp 1040 ------- 0 0.0 37.0 7 10
- 0.92048 42 41 tcp 1040 ------- 0 0.0 37.0 7 10
r 0.92208 47 46 tcp 1040 ------- 0 0.0 37.0 16 19
+ 0.92208 46 45 tcp 1040 ------- 0 0.0 37.0 16 19
- 0.92208 46 45 tcp 1040 ------- 0 0.0 37.0 16 19
r 0.92216 42 41 tcp 1040 ------- 0 0.0 37.0 5 8
+ 0.92216 41 40 tcp 1040 ------- 0 0.0 37.0 5 8
- 0.92216 41 40 tcp 1040 ------- 0 0.0 37.0 5 8
r 0.92376 46 45 tcp 1040 ------- 0 0.0 37.0 14 17
+ 0.92376 45 44 tcp 1040 ------- 0 0.0 37.0 14 17
- 0.92376 45 44 tcp 1040 ------- 0 0.0 37.0 14 17
r 0.92384 41 40 tcp 1040 ------- 0 0.0 37.0 3 6
+ 0.92384 40 39 tcp 1040 ------- 0 0.0 37.0 3 6
- 0.92384 40 39 tcp 1040 ------- 0 0.0 37.0 3 6
r 0.92544 45 44 tcp 1040 ------- 0 0.0 37.0 12 15
+ 0.92544 44 43 tcp 1040 ------- 0 0.0 37.0 12 15
- 0.92544 44 43 tcp 1040 ------- 0 0.0 37.0 12 15
r 0.92704 49 48 tcp 1040 ------- 0 0.0 37.0 21 24
+ 0.92704 48 47 tcp 1040 ------- 0 0.0 37.0 21 24
- 0.92704 48 47 tcp 1040 ------- 0 0.0 37.0 21 24
r 0.92712 44 43 tcp 1040 ------- 0 0.0 37.0 10 13
+ 0.92712 43 42 tcp 1040 ------- 0 0.0 37.0 10 13
- 0.92712 43 42 tcp 1040 ------- 0 0.0 37.0 10 13
r 0.92872 48 47 tcp 1040 ------- 0 0.0 37.0 19 22
+ 0.92872 47 46 tcp 1040 ------- 0 0.0 37.0 19 22
- 0.92872 47 46 tcp 1040 ------- 0 0.0 37.0 19 22
r 0.9288 43 42 tcp 1040 ------- 0 0.0 37.0 8 11
+ 0.9288 42 41 tcp 1040 ------- 0 0.0 37.0 8 11
- 0.9288 42 41 tcp 1040 ------- 0 0.0 37.0 8 11
r 0.9304 47 46 tcp 1040 ------- 0 0.0 37.0 17 20
+ 0.9304 46 45 tcp 1040 ------- 0 0.0 37.0 17 20
- 0.9304 46 45 tcp 1040 ------- 0 0.0 37.0 17 20
r 0.93048 42 41 tcp 1040 ------- 0 0.0 37.0 6 9
+ 0.93048 41 40 tcp 1040 ------- 0 0.0 37.0 6 9
- 0.93048 41 40 tcp 1040 ------- 0 0.0 37.0 6 9
r 0.93208 46 45 tcp 1040 ------- 0 0.0 37.0 15 18
+ 0.93208 45 44 tcp 1040 ------- 0 0.0 37.0 15 18
- 0.93208 45 44 tcp 1040 ------- 0 0.0 37.0 15 18
r 0.93216 41 40 tcp 1040 ------- 0 0.0 37.0 4 7
+ 0.93216 40 39 tcp 1040 ------- 0 0.0 37.0 4 7
- 0.93216 40 39 tcp 1040 ------- 0 0.0 37.0 4 7
r 0.93376 45 44 tcp 1040 ------- 0 0.0 37.0 13 16
+ 0.93376 44 43 tcp 1040 ------- 0 0.0 37.0 13 16
- 0.93376 44 43 tcp 1040 ------- 0 0.0 37.0 13 16
r 0.93536 49 48 tcp 1040 ------- 0 0.0 37.0 22 25
+ 0.93536 48 47 tcp 1040 ------- 0 0.0 37.0 22 25
- 0.93536 48 47 tcp 1040 ------- 0 0.0 37.0 22 25
r 0.93544 44 43 tcp 1040 ------- 0 0.0 37.0 11 14
+ 0.93544 43 42 tcp 1040 ------- 0 0.0 37.0 11 14
- 0.93544 43 42 tcp 1040 ------- 0 0.0 37.0 11 14
r 0.93704 48 47 tcp 1040 ------- 0 0.0 37.0 20 23