r 10.180203014 _44_ AGT  --- 0 cbr 70 [0 2c 26 800] [energy 990.834463 ei 9.121 es 0.000 et 0.005 er 0.039] ------- [0:0 44:0 25 44] [0] 6 0

r 10.180203014 _44_ AGT  --- 0 cbr 70 [0 2c 26 800] [energy 990.834463 ei 9.121 es 0.000 et 0.005 er 0.039] ------- [0:0 44:0 25 44] [0] 6 0

r 10.180203014 _44_ AGT  --- 0 cbr 70 [0 2c 26 800] [energy 990.834463 ei 9.121 es 0.000 et 0.005 er 0.039] ------- [0:0 44:0 25 44] [0] 6 0

r 10.180203014 _44_ AGT  --- 0 cbr 70 [0 2c 26 800] [energy 990.834463 ei 9.121 es 0.000 et 0.005 er 0.039] ------- [0:0 44:0 25 44] [0] 6 0